<?xml version="1.0" ?>
<VTKFile byte_order="LittleEndian" type="UnstructuredGrid" version="0.1">
<UnstructuredGrid>
<Piece NumberOfCells="0" NumberOfPoints="10192">
<Points>
<DataArray NumberOfComponents="3" format="ascii" type="Float32">
5.5490800e+00 5.4364900e+00 1.9348100e-01 5.0840600e+00 5.3539700e+00 1.3687200e-01 5.8981600e+00 5.3643300e+00 2.6859000e-02 5.9299200e+00 5.4538400e+00 6.0605000e-02 5.9629200e+00 5.0586300e+00 1.2920000e-02 5.8844000e+00 4.9088700e+00 1.1465000e-02 5.2004600e+00 5.1025500e+00 1.0744100e-01 5.3823500e+00 5.1571300e+00 8.2610000e-03 5.0343400e+00 5.0208900e+00 9.4880000e-03 5.6859100e+00 5.6587100e+00 7.4023000e-02 5.1429000e+00 5.7139500e+00 7.6058000e-02 5.1765300e+00 5.5138400e+00 6.7059000e-02 4.9555700e+00 5.7172700e+00 2.5467000e-02 5.7020800e+00 5.5073400e+00 1.6222700e-01 5.2632800e+00 5.3072800e+00 2.9401000e-02 5.7537900e+00 4.9502900e+00 1.4509000e-02 5.2971700e+00 5.5451900e+00 5.5476000e-02 5.4177900e+00 5.5303200e+00 1.9775200e-01 5.7226200e+00 5.1804500e+00 4.4804000e-02 5.8227200e+00 4.9794800e+00 4.3493000e-02 5.3539500e+00 5.6600800e+00 4.9238000e-02 5.0088100e+00 5.3131600e+00 3.0378000e-02 5.4588400e+00 5.1338800e+00 5.9303000e-02 5.7993500e+00 4.8428600e+00 1.5561000e-02 5.6253100e+00 5.5135900e+00 9.7993000e-02 5.4496600e+00 5.9229000e+00 1.3237000e-02 5.5649700e+00 5.5347800e+00 9.3890000e-02 5.3227500e+00 5.6167500e+00 8.0918000e-02 5.1949200e+00 5.2337700e+00 1.9983000e-01 5.3516600e+00 5.9473700e+00 2.8982000e-02 4.9739900e+00 5.5873300e+00 3.8445000e-02 5.5943800e+00 4.9823500e+00 9.6685000e-02 5.5661400e+00 5.3463600e+00 1.4750300e-01 5.3845700e+00 5.2641400e+00 2.4159200e-01 5.2558400e+00 5.4574700e+00 1.7832800e-01 5.4708900e+00 5.6482400e+00 7.4807000e-02 5.2792700e+00 5.3127700e+00 1.5469200e-01 5.1956600e+00 5.3020300e+00 2.0402400e-01 5.4481100e+00 5.9259300e+00 5.4790000e-02 5.1767400e+00 5.3391700e+00 1.8791200e-01 5.1698000e+00 5.5011500e+00 4.2706000e-02 5.4216800e+00 5.6129700e+00 1.0613400e-01 5.6606700e+00 5.5397000e+00 1.0250800e-01 5.6461700e+00 4.9015300e+00 2.8005000e-02 5.4386800e+00 5.1197300e+00 9.2299000e-02 5.7490400e+00 5.2427700e+00 1.2236200e-01 5.5301600e+00 5.9787500e+00 4.4933000e-02 5.1082400e+00 5.0976200e+00 1.4486000e-02 5.5081000e+00 5.9168800e+00 2.5004000e-02 5.7343300e+00 5.7925700e+00 5.2589000e-02 5.4151900e+00 5.3640400e+00 7.6277000e-02 5.2899100e+00 5.4126400e+00 2.4137500e-01 5.5102600e+00 5.4677000e+00 8.4770000e-03 5.1685600e+00 5.3428400e+00 8.4437000e-02 5.2499200e+00 5.5520500e+00 1.3611000e-01 5.0144800e+00 5.4837100e+00 9.0268000e-02 5.7568200e+00 5.0205800e+00 3.7493000e-02 5.0839000e+00 5.2954000e+00 6.7884000e-02 5.4955600e+00 5.0374400e+00 1.3314600e-01 4.9253600e+00 5.5074100e+00 1.2647000e-02 5.6132900e+00 5.2521600e+00 5.9825000e-02 5.5301700e+00 5.7247300e+00 1.3891000e-01 5.0582900e+00 5.0648300e+00 9.2130000e-03 5.0467400e+00 4.9920500e+00 4.1939000e-02 4.7734500e+00 5.3018200e+00 2.5529000e-02 6.0318900e+00 5.6723600e+00 8.7950000e-03 5.0632500e+00 5.3733600e+00 1.5889700e-01 5.1315800e+00 5.1003500e+00 2.6232000e-02 5.1949600e+00 5.0134600e+00 1.0004400e-01 5.6546300e+00 4.9518600e+00 5.2654000e-02 5.2272700e+00 5.8271800e+00 8.6220000e-03 5.7710700e+00 5.2512500e+00 1.0631000e-02 5.0696500e+00 5.4762200e+00 1.5571000e-01 5.4306800e+00 5.7129600e+00 1.0449200e-01 5.4515600e+00 5.3056300e+00 1.5469000e-01 6.0259000e+00 5.2983500e+00 3.1254000e-02 5.4126200e+00 5.4854900e+00 2.3269500e-01 5.3063800e+00 5.3715900e+00 2.0119100e-01 5.2296100e+00 5.6815500e+00 1.1550900e-01 5.7378400e+00 5.6505200e+00 1.1597000e-02 4.9113000e+00 5.1679500e+00 3.3620000e-02 5.7518100e+00 5.3721700e+00 1.2806900e-01 4.9154700e+00 4.9713500e+00 1.2110000e-02 5.6345500e+00 4.7737600e+00 1.4491000e-02 5.6479500e+00 5.7359700e+00 3.0679000e-02 5.2104200e+00 5.3971600e+00 1.4097300e-01 4.7905700e+00 5.4377900e+00 3.5771000e-02 5.2692800e+00 5.4060500e+00 3.0718000e-02 5.5197000e+00 5.5199000e+00 1.5155200e-01 5.7171400e+00 5.9518600e+00 1.2354000e-02 5.4089600e+00 5.1641400e+00 1.2628100e-01 5.6816300e+00 5.4688600e+00 1.4263700e-01 5.2617200e+00 5.3907000e+00 1.1153400e-01 5.1708600e+00 5.5397800e+00 1.4676200e-01 5.2501500e+00 5.6848300e+00 1.2337700e-01 5.3813100e+00 5.3191200e+00 1.0170200e-01 5.0886500e+00 5.5656700e+00 8.9706000e-02 5.7514600e+00 5.8407500e+00 2.8476000e-02 5.8088200e+00 5.0097300e+00 2.7779000e-02 5.1155700e+00 5.0789900e+00 2.9687000e-02 5.3626400e+00 5.1975100e+00 1.5594700e-01 5.8142500e+00 5.2124300e+00 9.2194000e-02 5.5676800e+00 5.4933500e+00 1.3160500e-01 5.5177900e+00 5.0382100e+00 8.1017000e-02 4.9902800e+00 5.0951700e+00 8.8769000e-02 5.6363100e+00 5.7035700e+00 1.3974900e-01 5.7517400e+00 5.2535400e+00 8.6460000e-03 5.2590000e+00 5.8032300e+00 5.5127000e-02 5.9864400e+00 5.6890200e+00 1.2829000e-02 5.4843000e+00 5.2026500e+00 5.5799000e-02 5.5848100e+00 5.4455300e+00 4.9087000e-02 5.5891600e+00 5.7681300e+00 5.0776000e-02 6.0281200e+00 5.4035900e+00 3.8458000e-02 5.0069300e+00 5.0258100e+00 5.8289000e-02 4.9563900e+00 5.2721700e+00 6.1956000e-02 5.2209500e+00 5.2693200e+00 2.1101100e-01 5.6174400e+00 5.0522600e+00 3.5394000e-02 5.7025100e+00 5.1328600e+00 9.7151000e-02 5.1892300e+00 5.7368700e+00 8.3500000e-03 5.7295200e+00 5.3662400e+00 9.2801000e-02 5.4587200e+00 5.1496800e+00 1.9157500e-01 5.2822600e+00 5.2961700e+00 7.0978000e-02 4.8887600e+00 5.4586500e+00 7.9019000e-02 5.0661600e+00 5.7448400e+00 5.3765000e-02 5.4686100e+00 5.3106800e+00 1.4430600e-01 4.9628300e+00 4.9125500e+00 1.5695000e-02 5.0999600e+00 5.3985900e+00 9.9740000e-03 5.2397100e+00 5.0898800e+00 1.3480000e-01 5.2845300e+00 5.2911500e+00 1.4664100e-01 5.1658300e+00 4.9735200e+00 3.3176000e-02 5.3301400e+00 5.4360700e+00 2.1472000e-01 5.4957500e+00 5.2640600e+00 1.2705100e-01 5.5685100e+00 4.7147500e+00 3.2065000e-02 5.4235800e+00 5.5311500e+00 1.1080600e-01 5.7013500e+00 5.8128100e+00 1.2783000e-02 5.2398600e+00 5.5994600e+00 1.2610000e-02 5.7543900e+00 5.4003000e+00 5.4135000e-02 5.2899400e+00 5.2825000e+00 8.8726000e-02 5.3289000e+00 5.6994300e+00 1.2267300e-01 5.6131700e+00 4.9520300e+00 3.7044000e-02 4.7788300e+00 5.1082900e+00 1.0518000e-02 5.1452300e+00 5.4008000e+00 8.6887000e-02 5.1292700e+00 5.2228300e+00 7.9918000e-02 5.4547900e+00 5.1990300e+00 6.9698000e-02 5.2659700e+00 5.0800800e+00 7.7654000e-02 4.9493200e+00 5.3227800e+00 5.6090000e-02 5.3413600e+00 5.2280300e+00 1.3446400e-01 5.3001300e+00 5.6551100e+00 1.8683200e-01 5.6935400e+00 5.1738800e+00 7.7085000e-02 4.9328500e+00 5.4408900e+00 9.8950000e-03 5.6000800e+00 5.6364200e+00 3.5016000e-02 5.5903800e+00 5.2160100e+00 1.5552900e-01 5.4605500e+00 5.5599800e+00 2.1638100e-01 5.0910300e+00 5.5830400e+00 1.1178800e-01 4.8836800e+00 5.5203500e+00 3.4903000e-02 5.8734500e+00 5.6899500e+00 3.1523000e-02 5.3301900e+00 5.6275100e+00 1.1063000e-02 5.1417100e+00 5.0405300e+00 8.5214000e-02 5.5416100e+00 5.5153000e+00 2.5317000e-02 5.8881500e+00 5.8742600e+00 1.2021000e-02 5.4839000e+00 5.9117600e+00 3.2944000e-02 5.4852700e+00 5.2799800e+00 3.1131000e-02 5.0850400e+00 5.2483100e+00 9.8287000e-02 5.6185000e+00 5.6465700e+00 1.5183800e-01 5.4873500e+00 5.4492800e+00 2.1734800e-01 4.9748400e+00 5.8968300e+00 1.1738000e-02 5.6485400e+00 5.2634400e+00 4.4351000e-02 5.4480900e+00 5.6301800e+00 2.1279600e-01 5.1105000e+00 5.2691400e+00 5.6962000e-02 5.7994700e+00 5.1078300e+00 1.0266000e-02 5.1660500e+00 5.0537000e+00 1.0640300e-01 5.3002100e+00 5.2854400e+00 4.0704000e-02 5.0179600e+00 5.7726900e+00 3.2820000e-02 5.8661600e+00 5.1367400e+00 1.4619000e-02 5.8852000e+00 5.2235400e+00 4.2826000e-02 5.2344200e+00 5.3826800e+00 2.1752800e-01 5.6650800e+00 4.9840400e+00 8.2286000e-02 5.5276600e+00 5.5814500e+00 6.9368000e-02 5.7364400e+00 5.1278400e+00 7.2215000e-02 5.5535200e+00 5.6112300e+00 1.5202100e-01 5.2415400e+00 5.5549700e+00 1.1745200e-01 5.2397300e+00 5.3466100e+00 3.7309000e-02 5.9398600e+00 5.6146400e+00 3.2121000e-02 5.4236000e+00 4.9832000e+00 1.1048100e-01 5.1339400e+00 5.9966400e+00 2.0201000e-02 5.2965100e+00 5.5621600e+00 1.3346800e-01 5.1671600e+00 5.7077200e+00 1.1554000e-02 5.7570000e+00 5.5892300e+00 9.4203000e-02 5.3351900e+00 5.1428400e+00 1.0362000e-01 5.4132300e+00 5.8459900e+00 7.9516000e-02 5.7828000e+00 5.5316400e+00 7.9864000e-02 5.1935500e+00 5.5017000e+00 2.1131000e-01 5.5972400e+00 5.2034800e+00 2.1359000e-02 5.5630400e+00 5.2312300e+00 1.9436000e-01 5.8886000e+00 5.8419200e+00 1.5421000e-02 4.9030500e+00 5.2164200e+00 4.3024000e-02 5.4615500e+00 5.5918000e+00 3.5866000e-02 5.4431100e+00 5.3486100e+00 8.3401000e-02 5.1132100e+00 5.5846700e+00 1.3212100e-01 5.2069900e+00 5.3612700e+00 2.4522900e-01 4.8419000e+00 5.6005600e+00 1.5899000e-02 5.7154700e+00 5.1749600e+00 6.7884000e-02 5.5068100e+00 5.2679000e+00 1.0270100e-01 5.2032200e+00 5.4700000e+00 1.5886700e-01 5.2424900e+00 5.2348900e+00 1.6106900e-01 5.2466400e+00 5.9372200e+00 1.5904000e-02 5.2848500e+00 5.5736800e+00 5.8826000e-02 5.0919400e+00 5.6025900e+00 1.4209600e-01 5.1615300e+00 5.9441700e+00 2.2481000e-02 5.4720600e+00 5.7987700e+00 4.3614000e-02 5.4917500e+00 5.3275100e+00 1.4099900e-01 5.0339200e+00 5.0885800e+00 5.8237000e-02 5.5574700e+00 5.3729800e+00 4.5213000e-02 5.5325200e+00 5.2434000e+00 4.1740000e-02 4.9322400e+00 5.3661400e+00 5.0558000e-02 5.1416100e+00 5.2670900e+00 1.1151800e-01 5.3247000e+00 5.5562200e+00 1.3095000e-01 5.4949800e+00 5.0815800e+00 1.4304000e-01 5.1548400e+00 5.3462400e+00 6.7981000e-02 5.5432300e+00 5.3336700e+00 2.0058100e-01 5.2864300e+00 5.1359200e+00 8.5030000e-03 5.1331500e+00 5.5043000e+00 7.7358000e-02 5.5585500e+00 5.6559900e+00 4.6938000e-02 5.3784000e+00 5.1407200e+00 7.2738000e-02 5.0598000e+00 5.8332600e+00 1.0473000e-02 5.0244900e+00 5.4184400e+00 7.8493000e-02 5.1968900e+00 5.4992100e+00 3.6015000e-02 5.3802600e+00 5.1964300e+00 1.6907200e-01 5.6960800e+00 5.1865300e+00 9.6924000e-02 5.6396800e+00 5.3882500e+00 8.9726000e-02 5.6045300e+00 5.3988500e+00 7.4209000e-02 5.2773300e+00 4.8718400e+00 4.5476000e-02 5.3381900e+00 5.0
[...]
<PointData>
<DataArray Name="Points" NumberOfComponents="3" format="ascii" type="Float32">
5.5490800e+00 5.4364900e+00 1.9348100e-01 5.0840600e+00 5.3539700e+00 1.3687200e-01 5.8981600e+00 5.3643300e+00 2.6859000e-02 5.9299200e+00 5.4538400e+00 6.0605000e-02 5.9629200e+00 5.0586300e+00 1.2920000e-02 5.8844000e+00 4.9088700e+00 1.1465000e-02 5.2004600e+00 5.1025500e+00 1.0744100e-01 5.3823500e+00 5.1571300e+00 8.2610000e-03 5.0343400e+00 5.0208900e+00 9.4880000e-03 5.6859100e+00 5.6587100e+00 7.4023000e-02 5.1429000e+00 5.7139500e+00 7.6058000e-02 5.1765300e+00 5.5138400e+00 6.7059000e-02 4.9555700e+00 5.7172700e+00 2.5467000e-02 5.7020800e+00 5.5073400e+00 1.6222700e-01 5.2632800e+00 5.3072800e+00 2.9401000e-02 5.7537900e+00 4.9502900e+00 1.4509000e-02 5.2971700e+00 5.5451900e+00 5.5476000e-02 5.4177900e+00 5.5303200e+00 1.9775200e-01 5.7226200e+00 5.1804500e+00 4.4804000e-02 5.8227200e+00 4.9794800e+00 4.3493000e-02 5.3539500e+00 5.6600800e+00 4.9238000e-02 5.0088100e+00 5.3131600e+00 3.0378000e-02 5.4588400e+00 5.1338800e+00 5.9303000e-02 5.7993500e+00 4.8428600e+00 1.5561000e-02 5.6253100e+00 5.5135900e+00 9.7993000e-02 5.4496600e+00 5.9229000e+00 1.3237000e-02 5.5649700e+00 5.5347800e+00 9.3890000e-02 5.3227500e+00 5.6167500e+00 8.0918000e-02 5.1949200e+00 5.2337700e+00 1.9983000e-01 5.3516600e+00 5.9473700e+00 2.8982000e-02 4.9739900e+00 5.5873300e+00 3.8445000e-02 5.5943800e+00 4.9823500e+00 9.6685000e-02 5.5661400e+00 5.3463600e+00 1.4750300e-01 5.3845700e+00 5.2641400e+00 2.4159200e-01 5.2558400e+00 5.4574700e+00 1.7832800e-01 5.4708900e+00 5.6482400e+00 7.4807000e-02 5.2792700e+00 5.3127700e+00 1.5469200e-01 5.1956600e+00 5.3020300e+00 2.0402400e-01 5.4481100e+00 5.9259300e+00 5.4790000e-02 5.1767400e+00 5.3391700e+00 1.8791200e-01 5.1698000e+00 5.5011500e+00 4.2706000e-02 5.4216800e+00 5.6129700e+00 1.0613400e-01 5.6606700e+00 5.5397000e+00 1.0250800e-01 5.6461700e+00 4.9015300e+00 2.8005000e-02 5.4386800e+00 5.1197300e+00 9.2299000e-02 5.7490400e+00 5.2427700e+00 1.2236200e-01 5.5301600e+00 5.9787500e+00 4.4933000e-02 5.1082400e+00 5.0976200e+00 1.4486000e-02 5.5081000e+00 5.9168800e+00 2.5004000e-02 5.7343300e+00 5.7925700e+00 5.2589000e-02 5.4151900e+00 5.3640400e+00 7.6277000e-02 5.2899100e+00 5.4126400e+00 2.4137500e-01 5.5102600e+00 5.4677000e+00 8.4770000e-03 5.1685600e+00 5.3428400e+00 8.4437000e-02 5.2499200e+00 5.5520500e+00 1.3611000e-01 5.0144800e+00 5.4837100e+00 9.0268000e-02 5.7568200e+00 5.0205800e+00 3.7493000e-02 5.0839000e+00 5.2954000e+00 6.7884000e-02 5.4955600e+00 5.0374400e+00 1.3314600e-01 4.9253600e+00 5.5074100e+00 1.2647000e-02 5.6132900e+00 5.2521600e+00 5.9825000e-02 5.5301700e+00 5.7247300e+00 1.3891000e-01 5.0582900e+00 5.0648300e+00 9.2130000e-03 5.0467400e+00 4.9920500e+00 4.1939000e-02 4.7734500e+00 5.3018200e+00 2.5529000e-02 6.0318900e+00 5.6723600e+00 8.7950000e-03 5.0632500e+00 5.3733600e+00 1.5889700e-01 5.1315800e+00 5.1003500e+00 2.6232000e-02 5.1949600e+00 5.0134600e+00 1.0004400e-01 5.6546300e+00 4.9518600e+00 5.2654000e-02 5.2272700e+00 5.8271800e+00 8.6220000e-03 5.7710700e+00 5.2512500e+00 1.0631000e-02 5.0696500e+00 5.4762200e+00 1.5571000e-01 5.4306800e+00 5.7129600e+00 1.0449200e-01 5.4515600e+00 5.3056300e+00 1.5469000e-01 6.0259000e+00 5.2983500e+00 3.1254000e-02 5.4126200e+00 5.4854900e+00 2.3269500e-01 5.3063800e+00 5.3715900e+00 2.0119100e-01 5.2296100e+00 5.6815500e+00 1.1550900e-01 5.7378400e+00 5.6505200e+00 1.1597000e-02 4.9113000e+00 5.1679500e+00 3.3620000e-02 5.7518100e+00 5.3721700e+00 1.2806900e-01 4.9154700e+00 4.9713500e+00 1.2110000e-02 5.6345500e+00 4.7737600e+00 1.4491000e-02 5.6479500e+00 5.7359700e+00 3.0679000e-02 5.2104200e+00 5.3971600e+00 1.4097300e-01 4.7905700e+00 5.4377900e+00 3.5771000e-02 5.2692800e+00 5.4060500e+00 3.0718000e-02 5.5197000e+00 5.5199000e+00 1.5155200e-01 5.7171400e+00 5.9518600e+00 1.2354000e-02 5.4089600e+00 5.1641400e+00 1.2628100e-01 5.6816300e+00 5.4688600e+00 1.4263700e-01 5.2617200e+00 5.3907000e+00 1.1153400e-01 5.1708600e+00 5.5397800e+00 1.4676200e-01 5.2501500e+00 5.6848300e+00 1.2337700e-01 5.3813100e+00 5.3191200e+00 1.0170200e-01 5.0886500e+00 5.5656700e+00 8.9706000e-02 5.7514600e+00 5.8407500e+00 2.8476000e-02 5.8088200e+00 5.0097300e+00 2.7779000e-02 5.1155700e+00 5.0789900e+00 2.9687000e-02 5.3626400e+00 5.1975100e+00 1.5594700e-01 5.8142500e+00 5.2124300e+00 9.2194000e-02 5.5676800e+00 5.4933500e+00 1.3160500e-01 5.5177900e+00 5.0382100e+00 8.1017000e-02 4.9902800e+00 5.0951700e+00 8.8769000e-02 5.6363100e+00 5.7035700e+00 1.3974900e-01 5.7517400e+00 5.2535400e+00 8.6460000e-03 5.2590000e+00 5.8032300e+00 5.5127000e-02 5.9864400e+00 5.6890200e+00 1.2829000e-02 5.4843000e+00 5.2026500e+00 5.5799000e-02 5.5848100e+00 5.4455300e+00 4.9087000e-02 5.5891600e+00 5.7681300e+00 5.0776000e-02 6.0281200e+00 5.4035900e+00 3.8458000e-02 5.0069300e+00 5.0258100e+00 5.8289000e-02 4.9563900e+00 5.2721700e+00 6.1956000e-02 5.2209500e+00 5.2693200e+00 2.1101100e-01 5.6174400e+00 5.0522600e+00 3.5394000e-02 5.7025100e+00 5.1328600e+00 9.7151000e-02 5.1892300e+00 5.7368700e+00 8.3500000e-03 5.7295200e+00 5.3662400e+00 9.2801000e-02 5.4587200e+00 5.1496800e+00 1.9157500e-01 5.2822600e+00 5.2961700e+00 7.0978000e-02 4.8887600e+00 5.4586500e+00 7.9019000e-02 5.0661600e+00 5.7448400e+00 5.3765000e-02 5.4686100e+00 5.3106800e+00 1.4430600e-01 4.9628300e+00 4.9125500e+00 1.5695000e-02 5.0999600e+00 5.3985900e+00 9.9740000e-03 5.2397100e+00 5.0898800e+00 1.3480000e-01 5.2845300e+00 5.2911500e+00 1.4664100e-01 5.1658300e+00 4.9735200e+00 3.3176000e-02 5.3301400e+00 5.4360700e+00 2.1472000e-01 5.4957500e+00 5.2640600e+00 1.2705100e-01 5.5685100e+00 4.7147500e+00 3.2065000e-02 5.4235800e+00 5.5311500e+00 1.1080600e-01 5.7013500e+00 5.8128100e+00 1.2783000e-02 5.2398600e+00 5.5994600e+00 1.2610000e-02 5.7543900e+00 5.4003000e+00 5.4135000e-02 5.2899400e+00 5.2825000e+00 8.8726000e-02 5.3289000e+00 5.6994300e+00 1.2267300e-01 5.6131700e+00 4.9520300e+00 3.7044000e-02 4.7788300e+00 5.1082900e+00 1.0518000e-02 5.1452300e+00 5.4008000e+00 8.6887000e-02 5.1292700e+00 5.2228300e+00 7.9918000e-02 5.4547900e+00 5.1990300e+00 6.9698000e-02 5.2659700e+00 5.0800800e+00 7.7654000e-02 4.9493200e+00 5.3227800e+00 5.6090000e-02 5.3413600e+00 5.2280300e+00 1.3446400e-01 5.3001300e+00 5.6551100e+00 1.8683200e-01 5.6935400e+00 5.1738800e+00 7.7085000e-02 4.9328500e+00 5.4408900e+00 9.8950000e-03 5.6000800e+00 5.6364200e+00 3.5016000e-02 5.5903800e+00 5.2160100e+00 1.5552900e-01 5.4605500e+00 5.5599800e+00 2.1638100e-01 5.0910300e+00 5.5830400e+00 1.1178800e-01 4.8836800e+00 5.5203500e+00 3.4903000e-02 5.8734500e+00 5.6899500e+00 3.1523000e-02 5.3301900e+00 5.6275100e+00 1.1063000e-02 5.1417100e+00 5.0405300e+00 8.5214000e-02 5.5416100e+00 5.5153000e+00 2.5317000e-02 5.8881500e+00 5.8742600e+00 1.2021000e-02 5.4839000e+00 5.9117600e+00 3.2944000e-02 5.4852700e+00 5.2799800e+00 3.1131000e-02 5.0850400e+00 5.2483100e+00 9.8287000e-02 5.6185000e+00 5.6465700e+00 1.5183800e-01 5.4873500e+00 5.4492800e+00 2.1734800e-01 4.9748400e+00 5.8968300e+00 1.1738000e-02 5.6485400e+00 5.2634400e+00 4.4351000e-02 5.4480900e+00 5.6301800e+00 2.1279600e-01 5.1105000e+00 5.2691400e+00 5.6962000e-02 5.7994700e+00 5.1078300e+00 1.0266000e-02 5.1660500e+00 5.0537000e+00 1.0640300e-01 5.3002100e+00 5.2854400e+00 4.0704000e-02 5.0179600e+00 5.7726900e+00 3.2820000e-02 5.8661600e+00 5.1367400e+00 1.4619000e-02 5.8852000e+00 5.2235400e+00 4.2826000e-02 5.2344200e+00 5.3826800e+00 2.1752800e-01 5.6650800e+00 4.9840400e+00 8.2286000e-02 5.5276600e+00 5.5814500e+00 6.9368000e-02 5.7364400e+00 5.1278400e+00 7.2215000e-02 5.5535200e+00 5.6112300e+00 1.5202100e-01 5.2415400e+00 5.5549700e+00 1.1745200e-01 5.2397300e+00 5.3466100e+00 3.7309000e-02 5.9398600e+00 5.6146400e+00 3.2121000e-02 5.4236000e+00 4.9832000e+00 1.1048100e-01 5.1339400e+00 5.9966400e+00 2.0201000e-02 5.2965100e+00 5.5621600e+00 1.3346800e-01 5.1671600e+00 5.7077200e+00 1.1554000e-02 5.7570000e+00 5.5892300e+00 9.4203000e-02 5.3351900e+00 5.1428400e+00 1.0362000e-01 5.4132300e+00 5.8459900e+00 7.9516000e-02 5.7828000e+00 5.5316400e+00 7.9864000e-02 5.1935500e+00 5.5017000e+00 2.1131000e-01 5.5972400e+00 5.2034800e+00 2.1359000e-02 5.5630400e+00 5.2312300e+00 1.9436000e-01 5.8886000e+00 5.8419200e+00 1.5421000e-02 4.9030500e+00 5.2164200e+00 4.3024000e-02 5.4615500e+00 5.5918000e+00 3.5866000e-02 5.4431100e+00 5.3486100e+00 8.3401000e-02 5.1132100e+00 5.5846700e+00 1.3212100e-01 5.2069900e+00 5.3612700e+00 2.4522900e-01 4.8419000e+00 5.6005600e+00 1.5899000e-02 5.7154700e+00 5.1749600e+00 6.7884000e-02 5.5068100e+00 5.2679000e+00 1.0270100e-01 5.2032200e+00 5.4700000e+00 1.5886700e-01 5.2424900e+00 5.2348900e+00 1.6106900e-01 5.2466400e+00 5.9372200e+00 1.5904000e-02 5.2848500e+00 5.5736800e+00 5.8826000e-02 5.0919400e+00 5.6025900e+00 1.4209600e-01 5.1615300e+00 5.9441700e+00 2.2481000e-02 5.4720600e+00 5.7987700e+00 4.3614000e-02 5.4917500e+00 5.3275100e+00 1.4099900e-01 5.0339200e+00 5.0885800e+00 5.8237000e-02 5.5574700e+00 5.3729800e+00 4.5213000e-02 5.5325200e+00 5.2434000e+00 4.1740000e-02 4.9322400e+00 5.3661400e+00 5.0558000e-02 5.1416100e+00 5.2670900e+00 1.1151800e-01 5.3247000e+00 5.5562200e+00 1.3095000e-01 5.4949800e+00 5.0815800e+00 1.4304000e-01 5.1548400e+00 5.3462400e+00 6.7981000e-02 5.5432300e+00 5.3336700e+00 2.0058100e-01 5.2864300e+00 5.1359200e+00 8.5030000e-03 5.1331500e+00 5.5043000e+00 7.7358000e-02 5.5585500e+00 5.6559900e+00 4.6938000e-02 5.3784000e+00 5.1407200e+00 7.2738000e-02 5.0598000e+00 5.8332600e+00 1.0473000e-02 5.0244900e+00 5.4184400e+00 7.8493000e-02 5.1968900e+00 5.4992100e+00 3.6015000e-02 5.3802600e+00 5.1964300e+00 1.6907200e-01 5.6960800e+00 5.1865300e+00 9.6924000e-02 5.6396800e+00 5.3882500e+00 8.9726000e-02 5.6045300e+00 5.3988500e+00 7.4209000e-02 5.2773300e+00 4.8718400e+00 4.5476000e-02 5.3381900e+00 5.0410200e+00 1.1771900e-01 5.4156100e+00 5.5677700e+00 4.4405000e-02 5.5543100e+00 5.2961400e+00 2.4323600e-01 5.4859100e+00 4.9269900e+00 7.7571000e-02 5.3041200e+00 5.1256600e+00 6.1929000e-02 5.3918600e+00 5.1246900e+00 1.5061900e-01 5.7888600e+00 5.2759200e+00 9.4137000e-02 5.0500100e+00 5.2862400e+00 8.7120000e-03 5.8236700e+00 5.5056100e+00 7.8542000e-02 4.9791200e+00 5.2134400e+00 1.0209000e-02 5.4135000e+00 5.2294500e+00 7.7760000e-02 5.6850500e+00 5.4139400e+00 3.0505000e-02 5.6114900e+00 5.6308600e+00 1.3287600e-01 5.6182400e+00 5.6353800e+00 9.0083000e-02 5.2792900e+00 5.7105400e+00 3.3523000e-02 5.4978200e+00 5.1215800e+00 1.4465500e-01 5.7283800e+00 4.9267000e+00 4.1314000e-02 5.6880100e+00 5.5527400e+00 1.0197200e-01 5.5378100e+00 5.4094800e+00 6.2153000e-02 5.4398000e+00 5.7106100e+00 3.3583000e-02 5.0368100e+00 5.1707300e+00 4.4273000e-02 5.1979500e+00 5.3051000e+00 1.7412300e-01 5.5259300e+00 5.3884700e+00 1.5553300e-01 5.5462500e+00 5.7154900e+00 1.5454200e-01 5.6934500e+00 4.7522800e+00 1.0967000e-02 5.7733100e+00 5.4748600e+00 1.1417700e-01 5.4799700e+00 5.9725400e+00 4.4968000e-02 5.1709700e+00 5.5334400e+00 1.9453700e-01 5.1244200e+00 5.8782000e+00 5.3602000e-02 5.6523100e+00 5.3588600e+00 8.9826000e-02 5.4951300e+00 5.9864600e+00 3.1299000e-02 5.4842400e+00 5.0595900e+00 1.3981600e-01 5.4952000e+00 5.3881000e+00 1.1912400e-01 5.4497400e+00 5.2061500e+00 1.6135600e-01 4.9256500e+00 5.6811300e+00 3.0218000e-02 5.7389500e+00 5.1457800e+00 5.0594000e-02 5.2792700e+00 5.3019400e+00 9.5656000e-02 5.1739000e+00 5.1003300e+00 4.0363000e-02 4.9421600e+00 5.1705900e+00 2.0002000e-02 5.2968500e+00 5.5022500e+00 2.1082200e-01 5.7795200e+00 5.5598700e+00 6.8792000e-02 5.7442800e+00 5.2530400e+00 5.0499000e-02 5.2690400e+00 5.7161800e+00 7.2533000e-02 4.9455900e+00 5.0884700e+00 2.6933000e-02 5.1963700e+00 5.7564200e+00 7.3056000e-02 5.6183200e+00 5.4042300e+00 9.9190000e-03 5.4982000e+00 5.5077300e+00 1.2344300e-01 5.6338900e+00 5.2775100e+00 1.5929400e-01 5.4067400e+00 5.7492100e+00 8.0485000e-02 5.0685900e+00 5.3998700e+00 1.2386200e-01 5.5153300e+00 5.0497800e+00 1.0218000e-01 5.6956600e+00 5.2466900e+00 1.0729400e-01 5.3949400e+00 5.0739800e+00 7.5985000e-02 6.0209900e+00 5.2253000e+00 1.0098000e-02 5.3284400e+00 5.2676200e+00 1.2480000e-02 5.4967600e+00 4.7264800e+00 1.4649000e-02 5.1662100e+00 5.6203400e+00 1.4632200e-01 5.5099600e+00 5.5089100e+00 7.4226000e-02 5.7974900e+00 5.1052100e+00 5.1873000e-02 5.1412400e+00 5.8508700e+00 4.1403000e-02 5.2034900e+00 5.5380800e+00 6.9188000e-02 4.9148400e+00 5.4153000e+00 6.8798000e-02 5.2225900e+00 5.3909600e+00 1.9801400e-01 5.5947800e+00 5.3066500e+00 2.9129000e-02 5.1689900e+00 5.3852400e+00 1.5969700e-01 5.6713600e+00 5.6005200e+00 1.5931100e-01 5.7354200e+00 5.7022000e+00 2.2988000e-02 5.1524000e+00 5.3005800e+00 2.1677000e-02 5.4186300e+00 5.3768000e+00 1.1707100e-01 5.1670200e+00 5.3670200e+00 8.8120000e-03 5.6066300e+00 5.4639700e+00 1.1413600e-01 5.1122800e+00 5.4488600e+00 1.1491600e-01 5.2651400e+00 5.5920000e+00 1.8263700e-01 5.1410100e+00 5.3708900e+00 1.5789900e-01 5.3461100e+00 5.4151200e+00 3.2344000e-02 5.7939300e+00 5.5899600e+00 1.2134000e-02 5.3520600e+00 5.7043500e+00 1.2524100e-01 5.2921400e+00 5.4528100e+00 1.4454700e-01 5.6000100e+00 5.5900800e+00 1.2651100e-01 5.1067700e+00 5.2613900e+00 1.5070000e-01 5.4230200e+00 5.1909900e+00 6.4090000e-02 5.5609900e+00 5.1005000e+00 1.0561600e-01 5.6619400e+00 5.0757400e+00 6.7602000e-02 5.8644200e+00 5.4876300e+00 2.3821000e-02 5.2846200e+00 5.2377000e+00 1.0546000e-02 5.2758200e+00 5.7188200e+00 9.4209000e-02 5.0552900e+00 4.9450200e+00 1.4940000e-02 5.6175900e+00 5.2550600e+00 3.3584000e-02 5.3193600e+00 5.5543900e+00 2.0020000e-01 5.5752600e+00 5.5078600e+00 7.2915000e-02 5.2931300e+00 5.5235900e+00 2.4072300e-01 5.4920500e+00 5.8349300e+00 7.0466000e-02 5.9688400e+00 5.1912200e+00 3.6494000e-02 5.4642500e+00 5.3415200e+00 2.5965600e-01 5.4951700e+00 5.5570400e+00 1.0126000e-02 5.4594000e+00 5.8892800e+00 3.5916000e-02 5.0136400e+00 5.6227600e+00 2.5148000e-02 4.8124700e+00 4.9857500e+00 1.1107000e-02 4.9705100e+00 5.6358700e+00 1.2426000e-02 5.1148900e+00 5.5925500e+00 6.2568000e-02 5.3544000e+00 5.7664100e+00 1.0119000e-02 5.3088000e+00 5.2136400e+00 1.5911600e-01 5.4721800e+00 5.5946700e+00 1.7332400e-01 5.1949400e+00 4.9926300e+00 6.0248000e-02 5.6449000e+00 5.5715800e+00 1.7996800e-01 5.0678800e+00 5.9341400e+00 1.1148000e-02 5.1073400e+00 5.1508200e+00 9.4565000e-02 5.2119200e+00 5.1491900e+00 1.1059000e-02 5.6997500e+00 5.5803500e+00 3.3114000e-02 5.4862700e+00 5.1445300e+00 1.8633100e-01 5.4061500e+00 5.2447200e+00 2.4305100e-01 5.4923500e+00 5.3692800e+00 1.3909500e-01 5.6938800e+00 5.6670400e+00 4.3573000e-02 5.2971800e+00 5.9362400e+00 4.0670000e-02 4.8931400e+00 5.5002100e+00 3.6652000e-02 5.3622900e+00 5.1505100e+00 1.5890000e-01 5.5673300e+00 5.2338000e+00 1.2630000e-02 5.6287300e+00 5.3935400e+00 1.6831800e-01 5.9515500e+00 5.5625000e+00 9.6790000e-03 5.2104800e+00 5.2213200e+00 7.4237000e-02 5.1506300e+00 5.2443500e+00 1.7954500e-01 5.5251600e+00 5.6369200e+00 1.4696100e-01 5.6084900e+00 5.0165500e+00 1.1083000e-02 5.9528900e+00 5.3066400e+00 1.5881000e-02 5.3961000e+00 5.6328200e+00 5.7921000e-02 5.4670600e+00 5.3918300e+00 2.4972200e-01 5.2334100e+00 5.4212000e+00 9.4060000e-02 5.0906800e+00 5.3538300e+00 8.7971000e-02 5.0367200e+00 4.8795900e+00 1.5426000e-02 5.4945700e+00 5.5667100e+00 1.7363300e-01 4.9145100e+00 5.1566800e+00 8.6380000e-03 5.4333200e+00 5.2043200e+00 9.6400000e-03 5.5803300e+00 5.3249300e+00 1.2360000e-02 5.1414900e+00 5.7085200e+00 3.0527000e-02 5.7020700e+00 5.8600500e+00 3.0895000e-02 4.8105600e+00 5.2685900e+00 3.8767000e-02 5.4438800e+00 5.6496600e+00 1.2455300e-01 5.5371400e+00 5.6973600e+00 4.6683000e-02 5.5283800e+00 5.4257400e+00 9.6779000e-02 5.9000400e+00 5.5769800e+00 3.5964000e-02 5.3894800e+00 5.7546200e+00 1.3537000e-02 5.5362200e+00 5.6686400e+00 9.9765000e-02 5.4740500e+00 5.2984400e+00 1.2348300e-01 5.2972000e+00 5.4744400e+00 1.8099400e-01 4.8919900e+00 5.3955700e+00 8.1870000e-03 5.3098900e+00 5.2612600e+00 1.4854000e-01 5.3754500e+00 5.8116300e+00 5.2614000e-02 5.3202200e+00 5.3730500e+00 4.6917000e-02 5.5538000e+00 5.9074900e+00 2.4839000e-02 5.3742800e+00 5.7740800e+00 1.0694800e-01 5.4676700e+00 5.2881500e+00 9.1840000e-03 5.1686600e+00 5.6796000e+00 1.1946900e-01 5.6695900e+00 5.4506300e+00 5.1332000e-02 5.2902700e+00 5.2076700e+00 2.0040500e-01 5.0690800e+00 5.0475400e+00 6.3800000e-02 5.7873900e+00 5.6509700e+00 9.7131000e-02 5.4485100e+00 5.3281500e+00 2.0228200e-01 5.1419500e+00 6.0143700e+00 1.1144000e-02 5.6124900e+00 5.9253400e+00 1.5066000e-02 5.4646000e+00 5.7315700e+00 8.0400000e-03 5.9965400e+00 5.2204100e+00 1.4556000e-02 4.8930400e+00 5.6246100e+00 1.0768000e-02 5.3424700e+00 5.3672300e+00 1.3123500e-01 5.6582400e+00 5.9051500e+00 4.6517000e-02 5.2917700e+00 5.4877000e+00 1.1375100e-01 5.3398900e+00 5.7047100e+00 1.0204800e-01 5.6431800e+00 5.4350900e+00 1.9941400e-01 5.1167500e+00 5.8031000e+00 3.6357000e-02 5.2976600e+00 5.1863100e+00 1.5125100e-01 5.8681800e+00 5.3269100e+00 7.0062000e-02 5.6569700e+00 5.4933300e+00 1.4999200e-01 5.5539400e+00 5.2252000e+00 1.1818200e-01 4.8592500e+00 5.5157400e+00 2.4725000e-02 5.4914800e+00 5.1560100e+00 1.3902100e-01 5.1088100e+00 5.7122000e+00 5.4375000e-02 5.1900800e+00 5.1876200e+00 7.4899000e-02 5.5537100e+00 5.5872100e+00 1.4674700e-01 5.4185500e+00 5.6990100e+00 1.5560600e-01 5.4008400e+00 5.1442600e+00 1.4533600e-01 5.5367000e+00 5.3430100e+00 1.5697700e-01 5.5813900e+00 5.3889100e+00 2.2994100e-01 5.4857900e+00 5.4471800e+00 1.9275100e-01 5.8041400e+00 5.3268800e+00 1.3406000e-02 4.9629400e+00 5.2231700e+00 4.7048000e-02 5.3923300e+00 5.1586100e+00 6.3406000e-02 5.8075900e+00 5.2134400e+00 3.6491000e-02 5.0477600e+00 5.2745400e+00 1.0279500e-01 5.3290200e+00 4.9892500e+00 1.1933000e-02 5.1628900e+00 5.2146900e+00 3.8938000e-02 5.4422000e+00 5.4288200e+00 3.7714000e-02 5.4352900e+00 5.3150200e+00 2.2097000e-02 5.1258500e+00 5.5180900e+00 1.8537000e-02 5.0929100e+00 5.3398600e+00 1.6506600e-01 4.8403300e+00 5.4379500e+00 5.0834000e-02 5.3528500e+00 5.6008700e+00 8.7090000e-03 5.3705800e+00 4.8867800e+00 5.4586000e-02 5.2574500e+00 5.5248100e+00 2.1506300e-01 5.2469800e+00 5.1743700e+00 1.4443600e-01 5.7166300e+00 4.9013800e+00 1.0463000e-02 5.5677500e+00 5.5365500e+00 1.8260900e-01 5.3149300e+00 5.5472600e+00 2.3191200e-01 4.9725200e+00 5.4865900e+00 3.5339000e-02 4.8123200e+00 5.5848300e+00 2.5795000e-02 5.3539800e+00 5.6311000e+00 1.4723500e-01 5.3563900e+00 5.1900500e+00 1.8016800e-01 5.5726500e+00 5.2277700e+00 1.0628900e-01 5.0201700e+00 5.2761400e+00 8.4600000e-03 5.4047800e+00 5.6060100e+00 5.6010000e-02 5.5921100e+00 5.5365100e+00 8.8090000e-03 5.5495500e+00 5.4389400e+00 2.4698300e-01 5.4932700e+00 5.1264500e+00 9.0558000e-02 5.3227700e+00 5.4969300e+00 2.2628000e-01 5.2682300e+00 5.2412400e+00 3.5605000e-02 5.7280600e+00 5.3696800e+00 1.4608800e-01 5.5487000e+00 5.9729300e+00 1.3229000e-02 4.9748400e+00 5.8007300e+00 3.2710000e-02 5.4603600e+00 5.3618200e+00 2.6185600e-01 5.2192400e+00 5.2019000e+00 1.2546000e-01 5.7469500e+00 5.7640200e+00 2.6410000e-02 5.4412200e+00 5.7777000e+00 5.4308000e-02 5.1460200e+00 5.1969200e+00 1.4868600e-01 5.3480500e+00 5.2474800e+00 1.5584000e-02 5.5228500e+00 5.2878300e+00 6.1774000e-02 5.0987500e+00 5.6847800e+00 9.5970000e-03 5.9332800e+00 5.3892900e+00 3.0433000e-02 4.7975200e+00 5.4806200e+00 3.4189000e-02 5.0126700e+00 5.2207600e+00 9.8360000e-03 5.3852800e+00 5.6071500e+00 1.7757700e-01 5.6683700e+00 5.0927100e+00 7.6699000e-02 4.8881800e+00 5.3131300e+00 1.3702000e-02 5.4022300e+00 5.6192000e+00 1.5147500e-01 5.5998200e+00 4.9470700e+00 1.3856000e-02 5.5462700e+00 5.6300300e+00 1.2212300e-01 5.2010000e+00 5.5202800e+00 5.4053000e-02 5.4847100e+00 5.4222500e+00 1.3682000e-01 5.6306400e+00 4.9732600e+00 2.4060000e-02 5.3178800e+00 4.8754300e+00 3.7000000e-02 5.0696100e+00 5.7736700e+00 5.7337000e-02 5.5406600e+00 4.9395200e+00 6.5945000e-02 5.2149600e+00 5.7389700e+00 1.4723000e-02 4.9564200e+00 5.0759900e+00 1.0063000e-02 5.1917500e+00 5.8885800e+00 9.7040000e-03 5