<?xml version="1.0" ?>
<VTKFile byte_order="LittleEndian" type="UnstructuredGrid" version="0.1">
<UnstructuredGrid>
<Piece NumberOfCells="0" NumberOfPoints="2048">
<Points>
<DataArray NumberOfComponents="3" format="ascii" type="Float32">
5.3658800e+00 5.6103200e+00 1.4759000e-02 5.2825500e+00 5.3256800e+00 1.2237000e-02 5.5608500e+00 5.6926200e+00 1.2792000e-02 5.1260300e+00 5.4584900e+00 3.7528000e-02 5.4204200e+00 5.4219700e+00 6.4995000e-02 5.3412200e+00 5.6198700e+00 1.1706000e-02 5.3357400e+00 5.4549800e+00 1.4131000e-02 5.1030300e+00 5.4836400e+00 2.9494000e-02 5.3952400e+00 5.4433600e+00 9.9927000e-02 5.4769600e+00 5.2155200e+00 7.9036000e-02 5.3467800e+00 5.4103800e+00 3.0814000e-02 5.3895600e+00 5.2202400e+00 1.5918000e-02 5.3481500e+00 5.2484400e+00 1.2691800e-01 5.2371400e+00 5.0594300e+00 1.1397000e-02 5.2518400e+00 5.4894600e+00 9.3121000e-02 5.2900100e+00 4.9532900e+00 1.2833000e-02 5.6187900e+00 5.1681200e+00 1.5247000e-02 5.5610400e+00 5.5989200e+00 9.3560000e-03 5.1172800e+00 5.4337700e+00 4.6783000e-02 5.5724400e+00 5.1781900e+00 1.1816000e-02 5.4719300e+00 5.2559500e+00 7.7796000e-02 5.2859000e+00 5.2260100e+00 1.2607000e-02 5.2649800e+00 5.0229500e+00 5.8058000e-02 5.3009200e+00 5.3675200e+00 1.4179200e-01 5.1670300e+00 5.6339900e+00 1.1891000e-02 5.2823400e+00 5.2868900e+00 2.6045000e-02 5.0545300e+00 5.2120900e+00 4.1268000e-02 5.1775100e+00 5.3212800e+00 8.5606000e-02 5.2881800e+00 5.4333000e+00 7.0418000e-02 5.3017600e+00 5.3088700e+00 1.0288000e-02 5.6125200e+00 5.2750900e+00 1.3636000e-02 5.5495300e+00 5.2512500e+00 3.6907000e-02 5.1386500e+00 5.2668700e+00 9.4671000e-02 5.3762200e+00 5.3967900e+00 3.0374000e-02 5.0813800e+00 5.2512700e+00 7.6136000e-02 5.1174600e+00 5.2683100e+00 3.2042000e-02 5.1839800e+00 5.0536900e+00 1.5134000e-02 5.4948700e+00 5.3256100e+00 3.7045000e-02 5.4494200e+00 5.1463500e+00 1.2965000e-02 5.2844300e+00 5.2893700e+00 5.7438000e-02 5.2439500e+00 5.2176900e+00 1.8772000e-02 5.0306700e+00 5.5654300e+00 1.5497000e-02 5.1946600e+00 5.4107900e+00 6.5935000e-02 5.3265900e+00 5.0098600e+00 3.5187000e-02 5.4580300e+00 5.5402300e+00 9.9270000e-03 5.4614400e+00 5.4860900e+00 1.0585000e-02 5.2910400e+00 5.1043100e+00 1.3142000e-02 5.5035100e+00 5.2556300e+00 8.4986000e-02 5.0099300e+00 5.0958600e+00 8.4800000e-03 5.3094500e+00 5.4039100e+00 1.3699600e-01 5.3612300e+00 5.1454900e+00 9.1614000e-02 5.3542900e+00 5.5998800e+00 3.7650000e-02 5.4973700e+00 5.5321700e+00 8.6680000e-03 5.1170700e+00 5.3087300e+00 4.8599000e-02 5.3045600e+00 5.2560900e+00 1.3596400e-01 5.5164700e+00 5.4193800e+00 4.2544000e-02 5.2131700e+00 5.1979400e+00 7.6920000e-02 5.2102000e+00 5.2075100e+00 6.0391000e-02 5.2650400e+00 5.3846900e+00 8.2392000e-02 5.2115800e+00 5.3683500e+00 9.3093000e-02 5.2272300e+00 5.3097500e+00 1.2814000e-02 5.6245300e+00 5.5235600e+00 8.7840000e-03 5.2866700e+00 5.2153200e+00 3.8724000e-02 5.2038600e+00 5.0807800e+00 2.5619000e-02 5.3161700e+00 5.3808400e+00 1.1768900e-01 5.1998900e+00 5.4282800e+00 1.0888000e-02 5.2235800e+00 5.2153900e+00 1.2518300e-01 5.4168500e+00 5.2663300e+00 8.1306000e-02 5.1571400e+00 5.4593900e+00 5.6343000e-02 5.5812100e+00 5.0521700e+00 9.5270000e-03 5.3084200e+00 5.4829700e+00 7.9805000e-02 5.3518700e+00 5.3382700e+00 4.7180000e-02 5.3841100e+00 5.5171800e+00 1.4350000e-02 5.3770200e+00 5.3753500e+00 1.2591000e-02 5.2509800e+00 5.1590100e+00 1.2730800e-01 5.0453200e+00 5.4006600e+00 2.4150000e-02 5.3269300e+00 5.3060400e+00 6.0707000e-02 5.2781700e+00 5.0397900e+00 1.1700000e-02 5.1819000e+00 5.0997200e+00 6.4107000e-02 5.2147000e+00 5.4709300e+00 8.1393000e-02 5.3025100e+00 5.4085300e+00 1.0808200e-01 5.2912000e+00 5.5109400e+00 5.2335000e-02 5.3466600e+00 5.0040800e+00 9.2560000e-03 5.3964100e+00 5.3190400e+00 2.8934000e-02 5.0836200e+00 5.2454700e+00 3.6201000e-02 5.4905100e+00 5.4153000e+00 2.5709000e-02 5.5072100e+00 5.2678600e+00 2.0435000e-02 5.5062100e+00 5.2917200e+00 8.4530000e-03 5.4249600e+00 5.1590800e+00 7.1481000e-02 5.5327500e+00 5.1169000e+00 1.5532000e-02 5.1603400e+00 5.2854300e+00 8.5436000e-02 5.1734000e+00 5.1223100e+00 5.8172000e-02 5.3870300e+00 5.4187200e+00 1.4093000e-02 5.2351900e+00 5.3745700e+00 1.1705300e-01 5.1807900e+00 5.2315900e+00 9.8646000e-02 5.0560200e+00 5.5044800e+00 1.0696000e-02 5.4080500e+00 5.2413600e+00 2.3178000e-02 5.2887700e+00 5.3163400e+00 9.0959000e-02 5.1138600e+00 4.9398100e+00 1.3054000e-02 5.3079300e+00 5.2118600e+00 1.4815300e-01 5.5341100e+00 5.3544900e+00 5.2898000e-02 5.3808300e+00 5.1029700e+00 8.8810000e-03 5.1357800e+00 5.2706900e+00 8.6940000e-03 5.2817200e+00 5.3636100e+00 1.0012300e-01 5.3764300e+00 5.4065700e+00 7.7768000e-02 5.2106200e+00 5.6015000e+00 1.4810000e-02 5.2131300e+00 5.1204700e+00 3.6263000e-02 5.0994900e+00 5.3606800e+00 2.6440000e-02 5.6308800e+00 5.1961200e+00 1.3579000e-02 5.4728200e+00 5.1945900e+00 7.0896000e-02 5.2258100e+00 5.2472200e+00 9.2900000e-03 5.3298200e+00 5.3288700e+00 1.0944000e-01 5.4236100e+00 4.8102800e+00 1.4028000e-02 5.3903800e+00 5.1497100e+00 4.9037000e-02 5.6058400e+00 5.2553500e+00 3.3203000e-02 5.2179100e+00 5.2812100e+00 1.0723800e-01 5.4648200e+00 5.4916200e+00 7.3751000e-02 5.5477300e+00 5.3071900e+00 3.5501000e-02 5.3260700e+00 5.1450100e+00 1.2954000e-02 5.2542400e+00 5.6055500e+00 1.0230000e-02 4.9704200e+00 5.2233600e+00 8.1640000e-03 5.3454000e+00 5.2762200e+00 3.1735000e-02 5.1073400e+00 5.2438100e+00 6.4958000e-02 5.1156000e+00 5.2633300e+00 5.6205000e-02 5.2939500e+00 5.2431900e+00 3.8423000e-02 5.4512500e+00 5.3227600e+00 7.6849000e-02 5.2105400e+00 5.1892700e+00 4.3414000e-02 5.4719800e+00 5.3221500e+00 3.1272000e-02 5.1777700e+00 5.3967400e+00 6.0144000e-02 5.1589300e+00 5.3232400e+00 1.0851300e-01 5.2559300e+00 5.2835600e+00 1.5690000e-02 5.2222400e+00 5.4644400e+00 1.4884000e-02 5.4314900e+00 5.3090100e+00 2.8383000e-02 4.8826800e+00 5.2979000e+00 1.1854000e-02 5.4961400e+00 5.0311100e+00 3.6437000e-02 5.0226600e+00 5.0356700e+00 1.1384000e-02 5.3064800e+00 5.3394900e+00 9.0379000e-02 5.1590400e+00 5.1599800e+00 2.4332000e-02 5.2592200e+00 5.4455100e+00 1.1624000e-02 5.4084900e+00 5.3019900e+00 1.5698000e-02 5.2518900e+00 5.3442300e+00 3.9735000e-02 5.1546500e+00 5.0370600e+00 2.7103000e-02 5.0680700e+00 5.5985000e+00 1.3777000e-02 5.2882000e+00 5.5992500e+00 2.5709000e-02 5.2666300e+00 5.3650100e+00 6.6535000e-02 5.3201300e+00 5.1619000e+00 4.3683000e-02 5.5312000e+00 5.3135500e+00 5.8714000e-02 5.0253100e+00 5.3547200e+00 9.7030000e-03 5.3216900e+00 5.5056900e+00 3.4717000e-02 5.3059700e+00 5.2392900e+00 1.5808500e-01 5.3572300e+00 5.2379800e+00 7.3260000e-02 5.1053100e+00 5.2749700e+00 7.6157000e-02 5.3191400e+00 5.2447100e+00 3.5685000e-02 5.3575100e+00 5.1759500e+00 3.7360000e-02 5.2569000e+00 5.7232200e+00 1.2200000e-02 5.2937600e+00 5.3878400e+00 1.2810600e-01 4.8966000e+00 5.2269000e+00 1.0609000e-02 5.3604500e+00 5.0561800e+00 9.7390000e-03 5.3075500e+00 5.0969700e+00 8.5178000e-02 5.6531700e+00 5.6143100e+00 1.2006000e-02 5.4300700e+00 5.4182100e+00 9.9224000e-02 5.3482700e+00 5.4434000e+00 1.0601400e-01 5.2977000e+00 5.4207500e+00 8.3660000e-03 5.4286900e+00 5.1981100e+00 1.4437000e-02 5.4677900e+00 5.3695600e+00 1.3461000e-02 5.3263900e+00 5.5983000e+00 1.4608000e-02 5.2824500e+00 5.3016600e+00 4.0782000e-02 4.9568700e+00 5.5065700e+00 8.5010000e-03 5.4497400e+00 5.2992900e+00 1.0106200e-01 5.2149200e+00 5.1846400e+00 1.4306000e-02 5.4164700e+00 5.1117300e+00 6.2126000e-02 5.3163900e+00 5.2063800e+00 7.3252000e-02 5.4764100e+00 5.1490300e+00 1.4058000e-02 5.2938000e+00 5.2985800e+00 1.2299100e-01 5.1825200e+00 5.4718700e+00 2.5383000e-02 5.5165200e+00 5.3282000e+00 7.1429000e-02 5.5640000e+00 5.3491400e+00 4.6114000e-02 5.5929500e+00 5.3866600e+00 1.5301000e-02 5.1880900e+00 5.4064700e+00 1.4098000e-02 5.2639700e+00 5.2888300e+00 4.3035000e-02 5.3597600e+00 5.3103100e+00 1.3010600e-01 5.1277800e+00 5.3762100e+00 4.3968000e-02 5.1674200e+00 5.5238900e+00 4.7560000e-02 5.3197100e+00 5.1092800e+00 5.4551000e-02 5.1561400e+00 5.3138500e+00 8.5904000e-02 5.4952200e+00 5.5794000e+00 1.5155000e-02 5.1635300e+00 5.1852100e+00 1.0423000e-02 5.3563200e+00 5.4038000e+00 1.0422600e-01 5.1663300e+00 5.4311800e+00 5.3901000e-02 5.3854200e+00 5.1562000e+00 8.4062000e-02 5.4458500e+00 5.3761800e+00 8.3382000e-02 5.2919300e+00 5.3205500e+00 1.2739900e-01 5.4393200e+00 5.3025900e+00 8.6610000e-03 5.3838800e+00 5.3773500e+00 5.0397000e-02 5.0758500e+00 5.4058600e+00 3.1909000e-02 5.2515300e+00 5.4198000e+00 1.0058000e-02 5.2410300e+00 5.4475500e+00 3.1233000e-02 5.5656100e+00 5.2756400e+00 9.3340000e-03 5.5270200e+00 5.2353200e+00 7.8610000e-02 5.2988800e+00 5.0514200e+00 3.8894000e-02 5.3955500e+00 5.4184800e+00 4.2700000e-02 5.7351000e+00 5.2283300e+00 1.1289000e-02 5.3538000e+00 5.1876900e+00 1.5380000e-02 5.0926300e+00 5.5236100e+00 1.0652000e-02 5.3346400e+00 5.2260900e+00 5.8871000e-02 5.1196300e+00 5.4403300e+00 1.3064000e-02 5.0383600e+00 5.4853500e+00 9.6080000e-03 5.4418100e+00 5.3322500e+00 8.2680000e-03 5.5850300e+00 5.5424300e+00 1.2661000e-02 5.1737400e+00 4.9582600e+00 1.2097000e-02 5.3967000e+00 5.4170200e+00 7.1481000e-02 5.5368300e+00 5.3665600e+00 2.9969000e-02 5.3680300e+00 5.2272800e+00 9.7716000e-02 5.4498800e+00 5.4548000e+00 5.0231000e-02 5.5320800e+00 5.2917400e+00 4.9452000e-02 4.9081400e+00 5.4304600e+00 1.3274000e-02 5.0432000e+00 5.1656700e+00 1.2186000e-02 5.4531900e+00 5.1871700e+00 2.8542000e-02 5.4013300e+00 5.6453500e+00 1.3469000e-02 5.2794500e+00 5.4140700e+00 1.1873500e-01 5.1504000e+00 5.0146200e+00 2.8984000e-02 5.5085800e+00 5.0836100e+00 3.6201000e-02 5.1917300e+00 5.3790300e+00 7.8200000e-02 5.6124100e+00 5.4313600e+00 1.1124000e-02 5.3643000e+00 5.4253400e+00 9.4842000e-02 5.3432300e+00 5.2106400e+00 8.8460000e-03 5.5875900e+00 5.1900800e+00 3.1135000e-02 5.2327100e+00 5.2107100e+00 8.0410000e-03 5.6437100e+00 5.4088300e+00 1.4558000e-02 5.0972800e+00 5.1978100e+00 1.4991000e-02 5.4880700e+00 5.1355700e+00 4.6884000e-02 5.3216900e+00 5.4677300e+00 3.8303000e-02 5.5068500e+00 5.30
[...]
<PointData>
<DataArray Name="Points" NumberOfComponents="3" format="ascii" type="Float32">
5.3658800e+00 5.6103200e+00 1.4759000e-02 5.2825500e+00 5.3256800e+00 1.2237000e-02 5.5608500e+00 5.6926200e+00 1.2792000e-02 5.1260300e+00 5.4584900e+00 3.7528000e-02 5.4204200e+00 5.4219700e+00 6.4995000e-02 5.3412200e+00 5.6198700e+00 1.1706000e-02 5.3357400e+00 5.4549800e+00 1.4131000e-02 5.1030300e+00 5.4836400e+00 2.9494000e-02 5.3952400e+00 5.4433600e+00 9.9927000e-02 5.4769600e+00 5.2155200e+00 7.9036000e-02 5.3467800e+00 5.4103800e+00 3.0814000e-02 5.3895600e+00 5.2202400e+00 1.5918000e-02 5.3481500e+00 5.2484400e+00 1.2691800e-01 5.2371400e+00 5.0594300e+00 1.1397000e-02 5.2518400e+00 5.4894600e+00 9.3121000e-02 5.2900100e+00 4.9532900e+00 1.2833000e-02 5.6187900e+00 5.1681200e+00 1.5247000e-02 5.5610400e+00 5.5989200e+00 9.3560000e-03 5.1172800e+00 5.4337700e+00 4.6783000e-02 5.5724400e+00 5.1781900e+00 1.1816000e-02 5.4719300e+00 5.2559500e+00 7.7796000e-02 5.2859000e+00 5.2260100e+00 1.2607000e-02 5.2649800e+00 5.0229500e+00 5.8058000e-02 5.3009200e+00 5.3675200e+00 1.4179200e-01 5.1670300e+00 5.6339900e+00 1.1891000e-02 5.2823400e+00 5.2868900e+00 2.6045000e-02 5.0545300e+00 5.2120900e+00 4.1268000e-02 5.1775100e+00 5.3212800e+00 8.5606000e-02 5.2881800e+00 5.4333000e+00 7.0418000e-02 5.3017600e+00 5.3088700e+00 1.0288000e-02 5.6125200e+00 5.2750900e+00 1.3636000e-02 5.5495300e+00 5.2512500e+00 3.6907000e-02 5.1386500e+00 5.2668700e+00 9.4671000e-02 5.3762200e+00 5.3967900e+00 3.0374000e-02 5.0813800e+00 5.2512700e+00 7.6136000e-02 5.1174600e+00 5.2683100e+00 3.2042000e-02 5.1839800e+00 5.0536900e+00 1.5134000e-02 5.4948700e+00 5.3256100e+00 3.7045000e-02 5.4494200e+00 5.1463500e+00 1.2965000e-02 5.2844300e+00 5.2893700e+00 5.7438000e-02 5.2439500e+00 5.2176900e+00 1.8772000e-02 5.0306700e+00 5.5654300e+00 1.5497000e-02 5.1946600e+00 5.4107900e+00 6.5935000e-02 5.3265900e+00 5.0098600e+00 3.5187000e-02 5.4580300e+00 5.5402300e+00 9.9270000e-03 5.4614400e+00 5.4860900e+00 1.0585000e-02 5.2910400e+00 5.1043100e+00 1.3142000e-02 5.5035100e+00 5.2556300e+00 8.4986000e-02 5.0099300e+00 5.0958600e+00 8.4800000e-03 5.3094500e+00 5.4039100e+00 1.3699600e-01 5.3612300e+00 5.1454900e+00 9.1614000e-02 5.3542900e+00 5.5998800e+00 3.7650000e-02 5.4973700e+00 5.5321700e+00 8.6680000e-03 5.1170700e+00 5.3087300e+00 4.8599000e-02 5.3045600e+00 5.2560900e+00 1.3596400e-01 5.5164700e+00 5.4193800e+00 4.2544000e-02 5.2131700e+00 5.1979400e+00 7.6920000e-02 5.2102000e+00 5.2075100e+00 6.0391000e-02 5.2650400e+00 5.3846900e+00 8.2392000e-02 5.2115800e+00 5.3683500e+00 9.3093000e-02 5.2272300e+00 5.3097500e+00 1.2814000e-02 5.6245300e+00 5.5235600e+00 8.7840000e-03 5.2866700e+00 5.2153200e+00 3.8724000e-02 5.2038600e+00 5.0807800e+00 2.5619000e-02 5.3161700e+00 5.3808400e+00 1.1768900e-01 5.1998900e+00 5.4282800e+00 1.0888000e-02 5.2235800e+00 5.2153900e+00 1.2518300e-01 5.4168500e+00 5.2663300e+00 8.1306000e-02 5.1571400e+00 5.4593900e+00 5.6343000e-02 5.5812100e+00 5.0521700e+00 9.5270000e-03 5.3084200e+00 5.4829700e+00 7.9805000e-02 5.3518700e+00 5.3382700e+00 4.7180000e-02 5.3841100e+00 5.5171800e+00 1.4350000e-02 5.3770200e+00 5.3753500e+00 1.2591000e-02 5.2509800e+00 5.1590100e+00 1.2730800e-01 5.0453200e+00 5.4006600e+00 2.4150000e-02 5.3269300e+00 5.3060400e+00 6.0707000e-02 5.2781700e+00 5.0397900e+00 1.1700000e-02 5.1819000e+00 5.0997200e+00 6.4107000e-02 5.2147000e+00 5.4709300e+00 8.1393000e-02 5.3025100e+00 5.4085300e+00 1.0808200e-01 5.2912000e+00 5.5109400e+00 5.2335000e-02 5.3466600e+00 5.0040800e+00 9.2560000e-03 5.3964100e+00 5.3190400e+00 2.8934000e-02 5.0836200e+00 5.2454700e+00 3.6201000e-02 5.4905100e+00 5.4153000e+00 2.5709000e-02 5.5072100e+00 5.2678600e+00 2.0435000e-02 5.5062100e+00 5.2917200e+00 8.4530000e-03 5.4249600e+00 5.1590800e+00 7.1481000e-02 5.5327500e+00 5.1169000e+00 1.5532000e-02 5.1603400e+00 5.2854300e+00 8.5436000e-02 5.1734000e+00 5.1223100e+00 5.8172000e-02 5.3870300e+00 5.4187200e+00 1.4093000e-02 5.2351900e+00 5.3745700e+00 1.1705300e-01 5.1807900e+00 5.2315900e+00 9.8646000e-02 5.0560200e+00 5.5044800e+00 1.0696000e-02 5.4080500e+00 5.2413600e+00 2.3178000e-02 5.2887700e+00 5.3163400e+00 9.0959000e-02 5.1138600e+00 4.9398100e+00 1.3054000e-02 5.3079300e+00 5.2118600e+00 1.4815300e-01 5.5341100e+00 5.3544900e+00 5.2898000e-02 5.3808300e+00 5.1029700e+00 8.8810000e-03 5.1357800e+00 5.2706900e+00 8.6940000e-03 5.2817200e+00 5.3636100e+00 1.0012300e-01 5.3764300e+00 5.4065700e+00 7.7768000e-02 5.2106200e+00 5.6015000e+00 1.4810000e-02 5.2131300e+00 5.1204700e+00 3.6263000e-02 5.0994900e+00 5.3606800e+00 2.6440000e-02 5.6308800e+00 5.1961200e+00 1.3579000e-02 5.4728200e+00 5.1945900e+00 7.0896000e-02 5.2258100e+00 5.2472200e+00 9.2900000e-03 5.3298200e+00 5.3288700e+00 1.0944000e-01 5.4236100e+00 4.8102800e+00 1.4028000e-02 5.3903800e+00 5.1497100e+00 4.9037000e-02 5.6058400e+00 5.2553500e+00 3.3203000e-02 5.2179100e+00 5.2812100e+00 1.0723800e-01 5.4648200e+00 5.4916200e+00 7.3751000e-02 5.5477300e+00 5.3071900e+00 3.5501000e-02 5.3260700e+00 5.1450100e+00 1.2954000e-02 5.2542400e+00 5.6055500e+00 1.0230000e-02 4.9704200e+00 5.2233600e+00 8.1640000e-03 5.3454000e+00 5.2762200e+00 3.1735000e-02 5.1073400e+00 5.2438100e+00 6.4958000e-02 5.1156000e+00 5.2633300e+00 5.6205000e-02 5.2939500e+00 5.2431900e+00 3.8423000e-02 5.4512500e+00 5.3227600e+00 7.6849000e-02 5.2105400e+00 5.1892700e+00 4.3414000e-02 5.4719800e+00 5.3221500e+00 3.1272000e-02 5.1777700e+00 5.3967400e+00 6.0144000e-02 5.1589300e+00 5.3232400e+00 1.0851300e-01 5.2559300e+00 5.2835600e+00 1.5690000e-02 5.2222400e+00 5.4644400e+00 1.4884000e-02 5.4314900e+00 5.3090100e+00 2.8383000e-02 4.8826800e+00 5.2979000e+00 1.1854000e-02 5.4961400e+00 5.0311100e+00 3.6437000e-02 5.0226600e+00 5.0356700e+00 1.1384000e-02 5.3064800e+00 5.3394900e+00 9.0379000e-02 5.1590400e+00 5.1599800e+00 2.4332000e-02 5.2592200e+00 5.4455100e+00 1.1624000e-02 5.4084900e+00 5.3019900e+00 1.5698000e-02 5.2518900e+00 5.3442300e+00 3.9735000e-02 5.1546500e+00 5.0370600e+00 2.7103000e-02 5.0680700e+00 5.5985000e+00 1.3777000e-02 5.2882000e+00 5.5992500e+00 2.5709000e-02 5.2666300e+00 5.3650100e+00 6.6535000e-02 5.3201300e+00 5.1619000e+00 4.3683000e-02 5.5312000e+00 5.3135500e+00 5.8714000e-02 5.0253100e+00 5.3547200e+00 9.7030000e-03 5.3216900e+00 5.5056900e+00 3.4717000e-02 5.3059700e+00 5.2392900e+00 1.5808500e-01 5.3572300e+00 5.2379800e+00 7.3260000e-02 5.1053100e+00 5.2749700e+00 7.6157000e-02 5.3191400e+00 5.2447100e+00 3.5685000e-02 5.3575100e+00 5.1759500e+00 3.7360000e-02 5.2569000e+00 5.7232200e+00 1.2200000e-02 5.2937600e+00 5.3878400e+00 1.2810600e-01 4.8966000e+00 5.2269000e+00 1.0609000e-02 5.3604500e+00 5.0561800e+00 9.7390000e-03 5.3075500e+00 5.0969700e+00 8.5178000e-02 5.6531700e+00 5.6143100e+00 1.2006000e-02 5.4300700e+00 5.4182100e+00 9.9224000e-02 5.3482700e+00 5.4434000e+00 1.0601400e-01 5.2977000e+00 5.4207500e+00 8.3660000e-03 5.4286900e+00 5.1981100e+00 1.4437000e-02 5.4677900e+00 5.3695600e+00 1.3461000e-02 5.3263900e+00 5.5983000e+00 1.4608000e-02 5.2824500e+00 5.3016600e+00 4.0782000e-02 4.9568700e+00 5.5065700e+00 8.5010000e-03 5.4497400e+00 5.2992900e+00 1.0106200e-01 5.2149200e+00 5.1846400e+00 1.4306000e-02 5.4164700e+00 5.1117300e+00 6.2126000e-02 5.3163900e+00 5.2063800e+00 7.3252000e-02 5.4764100e+00 5.1490300e+00 1.4058000e-02 5.2938000e+00 5.2985800e+00 1.2299100e-01 5.1825200e+00 5.4718700e+00 2.5383000e-02 5.5165200e+00 5.3282000e+00 7.1429000e-02 5.5640000e+00 5.3491400e+00 4.6114000e-02 5.5929500e+00 5.3866600e+00 1.5301000e-02 5.1880900e+00 5.4064700e+00 1.4098000e-02 5.2639700e+00 5.2888300e+00 4.3035000e-02 5.3597600e+00 5.3103100e+00 1.3010600e-01 5.1277800e+00 5.3762100e+00 4.3968000e-02 5.1674200e+00 5.5238900e+00 4.7560000e-02 5.3197100e+00 5.1092800e+00 5.4551000e-02 5.1561400e+00 5.3138500e+00 8.5904000e-02 5.4952200e+00 5.5794000e+00 1.5155000e-02 5.1635300e+00 5.1852100e+00 1.0423000e-02 5.3563200e+00 5.4038000e+00 1.0422600e-01 5.1663300e+00 5.4311800e+00 5.3901000e-02 5.3854200e+00 5.1562000e+00 8.4062000e-02 5.4458500e+00 5.3761800e+00 8.3382000e-02 5.2919300e+00 5.3205500e+00 1.2739900e-01 5.4393200e+00 5.3025900e+00 8.6610000e-03 5.3838800e+00 5.3773500e+00 5.0397000e-02 5.0758500e+00 5.4058600e+00 3.1909000e-02 5.2515300e+00 5.4198000e+00 1.0058000e-02 5.2410300e+00 5.4475500e+00 3.1233000e-02 5.5656100e+00 5.2756400e+00 9.3340000e-03 5.5270200e+00 5.2353200e+00 7.8610000e-02 5.2988800e+00 5.0514200e+00 3.8894000e-02 5.3955500e+00 5.4184800e+00 4.2700000e-02 5.7351000e+00 5.2283300e+00 1.1289000e-02 5.3538000e+00 5.1876900e+00 1.5380000e-02 5.0926300e+00 5.5236100e+00 1.0652000e-02 5.3346400e+00 5.2260900e+00 5.8871000e-02 5.1196300e+00 5.4403300e+00 1.3064000e-02 5.0383600e+00 5.4853500e+00 9.6080000e-03 5.4418100e+00 5.3322500e+00 8.2680000e-03 5.5850300e+00 5.5424300e+00 1.2661000e-02 5.1737400e+00 4.9582600e+00 1.2097000e-02 5.3967000e+00 5.4170200e+00 7.1481000e-02 5.5368300e+00 5.3665600e+00 2.9969000e-02 5.3680300e+00 5.2272800e+00 9.7716000e-02 5.4498800e+00 5.4548000e+00 5.0231000e-02 5.5320800e+00 5.2917400e+00 4.9452000e-02 4.9081400e+00 5.4304600e+00 1.3274000e-02 5.0432000e+00 5.1656700e+00 1.2186000e-02 5.4531900e+00 5.1871700e+00 2.8542000e-02 5.4013300e+00 5.6453500e+00 1.3469000e-02 5.2794500e+00 5.4140700e+00 1.1873500e-01 5.1504000e+00 5.0146200e+00 2.8984000e-02 5.5085800e+00 5.0836100e+00 3.6201000e-02 5.1917300e+00 5.3790300e+00 7.8200000e-02 5.6124100e+00 5.4313600e+00 1.1124000e-02 5.3643000e+00 5.4253400e+00 9.4842000e-02 5.3432300e+00 5.2106400e+00 8.8460000e-03 5.5875900e+00 5.1900800e+00 3.1135000e-02 5.2327100e+00 5.2107100e+00 8.0410000e-03 5.6437100e+00 5.4088300e+00 1.4558000e-02 5.0972800e+00 5.1978100e+00 1.4991000e-02 5.4880700e+00 5.1355700e+00 4.6884000e-02 5.3216900e+00 5.4677300e+00 3.8303000e-02 5.5068500e+00 5.3049900e+00 5.1236000e-02 5.3725100e+00 5.3642700e+00 1.4279900e-01 5.2859400e+00 5.2105400e+00 6.6825000e-02 5.4629600e+00 5.3033600e+00 1.5993000e-02 5.0625200e+00 5.2434000e+00 5.0904000e-02 5.2064000e+00 5.4289600e+00 5.6465000e-02 5.4153700e+00 5.2947500e+00 4.4664000e-02 5.2231800e+00 5.4521200e+00 6.9052000e-02 5.3691000e+00 5.6430900e+00 9.7110000e-03 5.2658000e+00 5.1233000e+00 3.4696000e-02 5.5340200e+00 5.0216600e+00 1.2757000e-02 5.4076700e+00 5.3813400e+00 9.7358000e-02 5.3174800e+00 5.3222300e+00 1.2292800e-01 5.2602600e+00 5.0126600e+00 1.3783000e-02 5.5625600e+00 5.1727600e+00 2.8634000e-02 5.4023400e+00 5.1230800e+00 1.0606000e-02 5.3045500e+00 5.4034300e+00 1.0381000e-02 5.1768100e+00 5.2376700e+00 4.7590000e-02 5.3992700e+00 5.3920600e+00 1.3612000e-02 5.0983500e+00 5.4441200e+00 2.2878000e-02 5.2619800e+00 5.3529900e+00 1.0592100e-01 5.2490200e+00 5.3177200e+00 1.0994400e-01 5.1187400e+00 5.3217600e+00 1.0621000e-02 5.2358200e+00 5.3934700e+00 1.0817000e-02 5.2312600e+00 5.4323900e+00 5.5162000e-02 5.6031400e+00 5.2171600e+00 8.9180000e-03 5.2435900e+00 5.5015300e+00 4.3988000e-02 5.0575900e+00 5.2527800e+00 3.4034000e-02 5.3347200e+00 5.2710600e+00 9.0046000e-02 5.0765000e+00 5.3163000e+00 6.9213000e-02 5.2915600e+00 5.4575600e+00 1.0916100e-01 5.1735100e+00 5.1726500e+00 2.4181000e-02 5.3331900e+00 5.1015500e+00 7.1784000e-02 5.2277900e+00 5.1809200e+00 8.0104000e-02 5.4511200e+00 5.4645200e+00 1.3501000e-02 5.2975200e+00 5.4124400e+00 7.9176000e-02 4.9766500e+00 5.5041100e+00 9.9870000e-03 5.4647300e+00 5.5057700e+00 2.4352000e-02 5.4597700e+00 5.2669500e+00 2.5362000e-02 5.4524000e+00 5.2271900e+00 1.3052000e-02 5.2193600e+00 5.5621200e+00 1.0421000e-02 5.1171100e+00 5.3888900e+00 3.3485000e-02 5.2774300e+00 5.5293300e+00 6.6102000e-02 5.2158900e+00 5.2394100e+00 9.1699000e-02 5.4368700e+00 5.1324000e+00 6.3494000e-02 5.5940800e+00 5.0936600e+00 1.0619000e-02 5.1844400e+00 5.3477200e+00 8.4988000e-02 5.5204000e+00 5.3994400e+00 9.4030000e-03 5.1371700e+00 5.2811200e+00 7.3490000e-02 5.3287200e+00 5.2085300e+00 6.2106000e-02 5.2123400e+00 5.3704600e+00 5.8027000e-02 5.2252500e+00 5.1520000e+00 7.0126000e-02 5.2862000e+00 5.3172900e+00 4.8086000e-02 5.3217800e+00 5.0902200e+00 6.1648000e-02 5.2130300e+00 5.5098600e+00 3.2490000e-02 5.1990400e+00 5.2234300e+00 5.2651000e-02 5.3377600e+00 5.4797400e+00 5.2816000e-02 4.9540500e+00 5.0199000e+00 8.4870000e-03 5.2061000e+00 5.4300000e+00 8.2247000e-02 5.2716100e+00 5.4115700e+00 7.6632000e-02 5.0736300e+00 5.1432100e+00 3.0959000e-02 5.2429700e+00 5.4462500e+00 1.1717800e-01 5.2846800e+00 5.1196300e+00 7.8199000e-02 5.2347900e+00 5.6000500e+00 9.3370000e-03 5.2353700e+00 5.3404300e+00 1.2229000e-02 5.2937500e+00 5.0691000e+00 6.1948000e-02 5.2914800e+00 5.2426600e+00 1.2198300e-01 4.8984800e+00 5.2625700e+00 9.5990000e-03 5.0852400e+00 5.4751600e+00 5.6298000e-02 5.1125200e+00 5.6118000e+00 9.7190000e-03 5.3735600e+00 5.1949600e+00 7.0030000e-02 5.2611200e+00 5.4060200e+00 1.0244800e-01 5.5128200e+00 5.3904100e+00 5.4482000e-02 5.3421500e+00 5.4335100e+00 1.2913400e-01 5.3894900e+00 5.1770700e+00 1.0128000e-01 5.2669000e+00 4.8772700e+00 1.5644000e-02 5.4700600e+00 5.2221700e+00 2.8744000e-02 5.3982300e+00 5.5403600e+00 1.2809000e-02 5.5043300e+00 5.4873500e+00 1.0033000e-02 5.0680700e+00 5.1887000e+00 1.2810000e-02 5.2135100e+00 5.4035100e+00 2.7962000e-02 5.3661800e+00 5.4423500e+00 1.3468000e-02 5.0445100e+00 5.4164500e+00 9.2630000e-03 5.2793700e+00 5.3030100e+00 1.0663000e-02 5.3391200e+00 5.2303500e+00 1.1518700e-01 5.3010700e+00 5.1679800e+00 9.8027000e-02 5.4051400e+00 4.9825500e+00 8.5620000e-03 5.2117400e+00 5.0431500e+00 1.3842000e-02 5.2458300e+00 5.3828900e+00 6.7976000e-02 5.4146500e+00 5.4332200e+00 1.9163000e-02 5.4897400e+00 5.3846200e+00 4.5352000e-02 5.1433100e+00 5.4351100e+00 5.7267000e-02 5.3966200e+00 5.0607300e+00 3.9977000e-02 5.4925900e+00 5.3617000e+00 2.9761000e-02 5.0528200e+00 5.1189400e+00 9.1370000e-03 5.2196100e+00 5.1322400e+00 9.0823000e-02 5.0964300e+00 5.5465000e+00 1.2622000e-02 5.3220000e+00 5.5117200e+00 9.7310000e-03 5.1653400e+00 5.1949700e+00 8.5644000e-02 5.2555700e+00 5.1950400e+00 5.9097000e-02 5.2685000e+00 4.9845400e+00 1.2186000e-02 5.3563400e+00 5.1577700e+00 1.3107000e-02 5.2291500e+00 5.1656100e+00 5.1140000e-02 5.4326100e+00 5.5552600e+00 8.2690000e-03 5.0918900e+00 5.1882400e+00 5.5827000e-02 5.1092000e+00 5.3419300e+00 1.1684000e-02 5.2372800e+00 5.2369900e+00 5.2218000e-02 5.3521200e+00 5.4851700e+00 2.5573000e-02 5.5277900e+00 5.4494500e+00 4.8803000e-02 4.9640000e+00 5.3844800e+00 1.4871000e-02 5.2902200e+00 5.2993400e+00 7.8901000e-02 5.0929600e+00 5.3347800e+00 5.2246000e-02 5.3059100e+00 5.5721700e+00 3.4458000e-02 5.2497500e+00 5.4846700e+00 6.6022000e-02 5.4899200e+00 5.2341100e+00 8.5158000e-02 5.2516000e+00 5.4563200e+00 5.6407000e-02 4.8180700e+00 5.4945000e+00 1.4781000e-02 5.2228600e+00 5.1620300e+00 1.2075000e-01 5.4427900e+00 5.1102000e+00 1.4020000e-02 5.1890100e+00 5.3508600e+00 1.3492000e-02 5.1477700e+00 4.9561700e+00 8.2230000e-03 5.2352500e+00 5.1035000e+00 9.8980000e-03 5.4160400e+00 5.4655600e+00 6.0789000e-02 5.1470300e+00 5.3786200e+00 8.9735000e-02 5.1298800e+00 5.2347300e+00 8.2660000e-03 5.2895300e+00 5.5570800e+00 4.3452000e-02 5.4941500e+00 5.2169600e+00 2.6910000e-02 5.1649200e+00 5.0909600e+00 4.7712000e-02 5.1864300e+00 5.1588100e+00 3.4325000e-02 5.1647000e+00 5.4440800e+00 7.2009000e-02 5.3649900e+00 5.2996900e+00 2.1552000e-02 5.5934300e+00 5.1825700e+00 8.8510000e-03 5.4532000e+00 5.0855500e+00 1.0429000e-02 5.2363900e+00 5.1925700e+00 1.2173600e-01 5.3398500e+00 5.3307400e+00 1.3951900e-01 5.1671200e+00 5.1557000e+00 4.0718000e-02 5.1135400e+00 5.5279900e+00 1.0680000e-02 5.3582300e+00 5.1099200e+00 1.5736000e-02 5.1547800e+00 5.1323700e+00 1.1443000e-02 5.0760500e+00 5.2117000e+00 6.1991000e-02 5.0312200e+00 5.3260600e+00 9.5580000e-03 5.5186000e+00 5.2073000e+00 6.6722000e-02 5.3002200e+00 5.4604000e+00 5.4637000e-02 5.3531100e+00 5.2279500e+00 4.7921000e-02 5.0806900e+00 5.2808200e+00 6.4877000e-02 5.2527200e+00 5.2534300e+00 9.9581000e-02 5.3471100e+00 5.0906000e+00 5.4769000e-02 5.0860400e+00 5.3162700e+00 1.3245000e-02 5.4178000e+00 5.2849500e+00 8.9036000e-02 5.3807800e+00 5.1965100e+00 8.9302000e-02 5.0970800e+00 5.3099100e+00 6.0556000e-02 5.5364600e+00 5.2085300e+00 3.8367000e-02 5.5002500e+00 5.2014700e+00 3.5526000e-02 5.3153700e+00 5.4123100e+00 3.5585000e-02 5.3284900e+00 5.3736000e+00 6.3448000e-02 5.1810000e+00 5.5081100e+00 1.0696000e-02 5.4694800e+00 5.2588500e+00 3.8970000e-02 5.1565500e+00 5.1964100e+00 5.8317000e-02 5.2838200e+00 5.4727200e+00 7.8935000e-02 5.2207200e+00 5.5012000e+00 5.7491000e-02 5.3225400e+00 5.1608300e+00 6.8566000e-02 5.3821600e+00 5.6603400e+00 1.0938000e-02 5.2628600e+00 5.2855100e+00 6.6531000e-02 4.9126700e+00 5.5213400e+00 1.1189000e-02 5.2198100e+00 5.1970500e+00 1.0849000e-01 5.3661400e+00 5.5502000e+00 2.4302000e-02 5.2960000e+00 5.2846100e+00 1.4311900e-01 4.9203100e+00 5.4945700e+00 1.4169000e-02 5.1647700e+00 5.4497100e+00 3.8159000e-02 5.3369700e+00 5.5396500e+00 3.8492000e-02 5.0830800e+00 5.3475000e+00 4.1067000e-02 5.1827500e+00 5.2069900e+00 4.2251000e-02 5.4844600e+00 5.4450200e+00 3.8508000e-02 5.2358200e+00 5.2416100e+00 1.2946200e-01 5.5514200e+00 5.2590500e+00 1.2606000e-02 5.3452800e+00 5.2123000e+00 7.7519000e-02 5.4512800e+00 5.2423400e+00 9.3663000e-02 5.2577900e+00 5.2265600e+00 3.6750000e-02 5.2478900e+00 4.9552900e+00 1.1610000e-02 5.2827700e+00 5.5883800e+00 1.0356000e-02 5.2184100e+00 5.2580400e+00 4.5513000e-02 5.4235600e+00 5.1346500e+00 1.3765000e-02 5.4623100e+00 5.4107000e+00 1.5102000e-02 4.9971000e+00 5.4729100e+00 1.3150000e-02 5.0929600e+00 5.2629000e+00 5.5315000e-02 5.2149800e+00 5.0593700e+00 3.0313000e-02 5.2137500e+00 5.3192300e+00 7.2667000e-02 5.2199300e+00 5.4741600e+00 4.9869000e-02 5.2322500e+00 5.2725600e+00 1.9155000e-02 5.3034800e+00 5.3285900e+00 1.4474400e-01 5.1883000e+00 5.1030400e+00 3.3529000e-02 5.0936700e+00 5.4225800e+00 1.4698000e-02 5.2285000e+00 5.1372100e+00 1.1272100e-01 5.4557300e+00 5.4880500e+00 3.2018000e-02 5.1589600e+00 5.0363800e+00 8.4580000e-03 5.3362600e+00 5.4862300e+00 3.6220000e-02 5.5007400e+00 5.0965000e+00 1.0091000e-02 5.5510200e+00 5.3903400e+00 2.8120000e-02 5.3714900e+00 5.4557700e+00 6.1368000e-02 5.1338800e+00 5.3546400e+00 1.0065300e-01 5.2105500e+00 5.2972200e+00 6.2862000e-02 5.3544500e+00 5.4584900e+00 2.5468000e-02 5.3036800e+00 5.5851800e+00 1.6664000e-02 5.1682700e+00 5.2457200e+00 1.1495200e-01 5.5150100e+00 5.3216400e+00 1.4134000e-02 5.4525100e+00 5.2482100e+00 6.3187000e-02 5.2557100e+00 5.4238800e+00 1.2060600e-01 5.3708600e+00 5.5302600e+00 3.1924000e-02 5.2671500e+00 5.2193000e+00 1.4077200e-01 5.5093300e+00 4.6948500e+00 9.6490000e-03 5.2470500e+00 4.9818200e+00 2.7235000e-02 5.4475000e+00 5.6089200e+00 1.3064000e-02 5.0720100e+00 5.5206300e+00 1.0018000e-02 5.2932500e+00 5.3147000e+00 2.9833000e-02 5.5724700e+00 5.2104200e+00 3.3866000e-02 5.2697500e+00 5.0969200e+00 6.3459000e-02 5.2837400e+00 5.1533100e+00 1.3027800e-01 5.4694700e+00 5.3651800e+00 8.0265000e-02 5.2676000e+00 5.5706300e+00 8.8570000e-03 5.1071300e+00 5.1501800e+00 1.3296000e-02 5.3345200e+00 5.3985100e+00 1.3152800e-01 5.4189300e+00 5.3839400e+00 5.8523000e-02 5.1109500e+00 5.2239700e+00 1.3291000e-02 5.1326000e+00 5.4071400e+00 7.5545000e-02 5.0726000e+00 5.5705700e+00 1.3761000e-02 5.2052700e+00 5.4023100e+00 8.6482000e-02 5.4019100e+00 5.0065200e+00 1.5881000e-02 5.4095000e+00 5.2968700e+00 6.7234000e-02 5.1661500e+00 4.8678700e+00 1.1756000e-02 5.3985700e+00 5.3226300e+00 8.3500000e-03 5.2120300e+00 5.3892300e+00 1.1046300e-01 5.2642100e+00 5.2184700e+00 5.9137000e-02 5.3778300e+00 5.2761300e+00 9.7652000e-02 5.6924400e+00 5.2383200e+00 1.2661000e-02 5.2442700e+00 5.3011700e+00 6.1800000e-02 5.4637700e+00 5.1280700e+00 3.2218000e-02 5.2644100e+00 5.1834000e+00 1.0202000e-02 5.1717500e+00 4.9135500e+00 1.1803000e-02 5.3303800e+00 5.2647100e+00 5.4218000e-02 5.3142800e+00 5.3047100e+00 3.3052000e-02 5.2879600e+00 5.2759400e+00 7.3709000e-02 5.0648200e+00 5.0988200e+00 1.1954000e-02 5