<?xml version="1.0" ?>
<VTKFile byte_order="LittleEndian" type="UnstructuredGrid" version="0.1">
<UnstructuredGrid>
<Piece NumberOfCells="0" NumberOfPoints="5040">
<Points>
<DataArray NumberOfComponents="3" format="ascii" type="Float32">
1.6940000e+00 1.6677800e+00 1.5795300e-01 1.6342200e+00 1.7277900e+00 1.5422600e-01 2.0941100e+00 1.8021900e+00 7.4936000e-02 1.5474200e+00 1.9067300e+00 1.2115300e-01 2.0219800e+00 2.1595400e+00 3.4545000e-02 1.8614100e+00 1.7161300e+00 7.7332000e-02 2.0410900e+00 1.7933400e+00 9.3334000e-02 1.9683100e+00 1.6150900e+00 2.4887000e-02 1.8530300e+00 1.6281800e+00 2.4307000e-02 1.5066800e+00 1.9022500e+00 4.2366000e-02 1.3774500e+00 2.1235100e+00 1.1311000e-02 1.7729700e+00 1.8548700e+00 8.6690000e-03 1.6177800e+00 1.9319800e+00 3.3703000e-02 1.8121600e+00 1.6771200e+00 5.3014000e-02 1.4875300e+00 1.7956600e+00 5.4484000e-02 1.7253800e+00 1.9732100e+00 6.2659000e-02 1.5860800e+00 1.9989700e+00 4.0895000e-02 1.8212300e+00 2.2148700e+00 1.2502000e-02 2.0088800e+00 1.9003200e+00 1.5433600e-01 1.9150600e+00 1.7273400e+00 1.2713000e-02 1.7537700e+00 1.8761200e+00 4.1974000e-02 1.7683800e+00 1.9617000e+00 1.4620100e-01 1.5198700e+00 1.7021800e+00 1.0729500e-01 1.6007100e+00 2.3501500e+00 9.1990000e-03 1.8219100e+00 1.9199600e+00 8.3060000e-03 1.6841600e+00 1.9565800e+00 1.2433000e-02 1.8865300e+00 1.5396200e+00 3.2950000e-02 1.4455800e+00 1.7318000e+00 1.5523000e-02 2.0797100e+00 1.8394100e+00 1.1673700e-01 1.8461900e+00 1.7141400e+00 2.1276100e-01 1.8706100e+00 2.0643100e+00 9.0950000e-03 1.6873300e+00 1.5503700e+00 5.1507000e-02 2.1602800e+00 1.8181700e+00 6.6093000e-02 1.5477500e+00 1.9754000e+00 8.4645000e-02 1.5679200e+00 1.8315300e+00 1.2828000e-02 1.9326600e+00 1.9679700e+00 1.4709000e-02 1.8061300e+00 1.4446700e+00 3.1878000e-02 1.9062600e+00 1.9955700e+00 4.7608000e-02 1.8181300e+00 1.8770800e+00 1.5127300e-01 1.6308800e+00 1.6040600e+00 1.3272700e-01 2.1117100e+00 2.0053800e+00 6.7839000e-02 1.7677900e+00 1.6213200e+00 8.9260000e-03 1.9466500e+00 1.5684600e+00 7.8592000e-02 1.8768400e+00 1.8343900e+00 1.1193800e-01 1.7651300e+00 1.5414600e+00 8.8090000e-03 1.8093300e+00 1.6623300e+00 4.6869000e-02 1.6402000e+00 1.6934300e+00 1.2029000e-02 1.2764800e+00 1.9289200e+00 9.8980000e-03 1.6222400e+00 1.7127500e+00 9.3350000e-03 1.6716700e+00 1.8951600e+00 8.3347000e-02 1.9618400e+00 1.9094800e+00 2.8349000e-02 1.7909300e+00 1.5302600e+00 2.7467000e-02 1.8779900e+00 1.8112500e+00 9.8450000e-03 1.7913000e+00 1.8183200e+00 2.1115800e-01 1.8839900e+00 1.8315900e+00 1.3600600e-01 1.5544500e+00 2.0239400e+00 9.3973000e-02 2.2042700e+00 1.9016400e+00 1.1924000e-02 1.5719200e+00 1.8436400e+00 1.4873100e-01 1.9509300e+00 2.0766300e+00 7.4028000e-02 2.1031000e+00 1.5579800e+00 3.5695000e-02 2.0288200e+00 1.8027500e+00 1.8290000e-02 1.7247400e+00 1.7902700e+00 1.2523400e-01 1.6890300e+00 1.5775400e+00 1.5966500e-01 1.5692000e+00 1.9870800e+00 5.5587000e-02 1.9691500e+00 2.0248900e+00 8.1820000e-03 1.8800200e+00 1.9849100e+00 1.2682900e-01 1.8577700e+00 1.9319300e+00 9.3360000e-03 2.0690700e+00 1.7645400e+00 6.8273000e-02 1.6955500e+00 1.4677600e+00 8.6235000e-02 1.5883400e+00 1.6532600e+00 1.1970400e-01 1.9977200e+00 1.7844500e+00 4.9085000e-02 1.7125700e+00 1.7433600e+00 3.0311000e-02 1.9391600e+00 1.9326400e+00 1.3747800e-01 2.2291700e+00 1.7261800e+00 4.0495000e-02 1.7184600e+00 1.8437200e+00 1.9555900e-01 1.7680300e+00 1.8032800e+00 3.0923000e-02 1.9246800e+00 1.8630400e+00 3.5545000e-02 2.0643500e+00 1.7567500e+00 4.8041000e-02 1.5255400e+00 1.5680200e+00 8.8004000e-02 1.6951400e+00 1.9896900e+00 3.4290000e-02 1.8270600e+00 1.8976600e+00 8.9519000e-02 2.0102700e+00 1.6038900e+00 5.3755000e-02 1.9408300e+00 1.3370500e+00 8.9710000e-03 1.8010600e+00 1.5880900e+00 1.4089500e-01 1.7584000e+00 1.6952500e+00 1.3625000e-02 1.8109900e+00 2.1198800e+00 2.8087000e-02 1.8999300e+00 1.8224700e+00 1.8035800e-01 2.1483600e+00 1.9086800e+00 5.1065000e-02 1.8357000e+00 1.6933300e+00 2.2686400e-01 1.6392500e+00 1.6234800e+00 7.1739000e-02 1.9650000e+00 1.8200400e+00 6.7869000e-02 2.0591400e+00 1.8644100e+00 9.3837000e-02 1.8439000e+00 2.0816400e+00 4.7247000e-02 1.6743200e+00 1.7760400e+00 1.4427700e-01 2.0662100e+00 1.8284800e+00 1.0837000e-02 1.6681900e+00 2.1202200e+00 3.8636000e-02 1.7912900e+00 1.8324500e+00 5.0862000e-02 1.6851100e+00 1.6953700e+00 1.1068000e-02 1.7539600e+00 1.9924900e+00 1.2746000e-02 1.6344600e+00 1.5570000e+00 6.1787000e-02 1.7549700e+00 2.0451300e+00 1.2016600e-01 1.5190200e+00 1.8889000e+00 3.1495000e-02 1.7791600e+00 1.8394100e+00 7.5247000e-02 1.7686300e+00 1.4070200e+00 8.8420000e-03 1.8800200e+00 1.8224100e+00 5.5367000e-02 2.0564200e+00 1.8335300e+00 3.1051000e-02 1.7423500e+00 1.9070700e+00 9.9079000e-02 1.9214200e+00 1.8894100e+00 1.2576000e-02 1.9357900e+00 1.7107200e+00 3.0006000e-02 2.0626800e+00 1.7758900e+00 1.1050000e-02 2.2235500e+00 1.9096000e+00 2.5544000e-02 1.3717400e+00 1.9336600e+00 9.9790000e-03 2.0707900e+00 1.7726200e+00 4.0905000e-02 1.8149700e+00 2.0671700e+00 1.0465600e-01 1.8583000e+00 1.8389400e+00 1.3196700e-01 2.1342500e+00 1.9042100e+00 1.5138000e-02 1.8314600e+00 1.5860500e+00 8.1938000e-02 1.6151400e+00 1.7426100e+00 1.3817600e-01 2.0891800e+00 1.7035400e+00 5.0800000e-02 1.9967600e+00 1.7802500e+00 2.5134000e-02 1.9183500e+00 2.2176100e+00 3.0465000e-02 1.9112700e+00 2.1654400e+00 3.1921000e-02 1.7692700e+00 1.8497800e+00 9.7471000e-02 1.7246300e+00 1.3450000e+00 9.7030000e-03 1.7324200e+00 1.7306000e+00 1.1995700e-01 1.4686900e+00 1.9590300e+00 2.7799000e-02 1.9918100e+00 2.2983400e+00 1.5378000e-02 1.9026300e+00 1.9654700e+00 1.5422000e-02 1.8178900e+00 1.6762300e+00 7.2574000e-02 1.8760200e+00 2.0524300e+00 1.2701700e-01 1.8231400e+00 1.6559200e+00 8.4506000e-02 1.5779300e+00 1.8491200e+00 3.0737000e-02 2.2362700e+00 1.9874500e+00 1.2656000e-02 2.1318000e+00 2.0256300e+00 8.1810000e-03 1.6252600e+00 1.6596400e+00 5.8944000e-02 1.7863700e+00 1.7863500e+00 2.0142400e-01 1.6126800e+00 1.8787800e+00 1.0691000e-02 1.8458200e+00 1.9147800e+00 8.6828000e-02 1.6042200e+00 1.5326000e+00 7.4634000e-02 2.1379900e+00 1.8195300e+00 1.3130000e-02 2.2646100e+00 1.7758500e+00 1.0214000e-02 2.1727100e+00 1.8696500e+00 8.9990000e-03 1.4357800e+00 1.9089200e+00 1.0134000e-02 1.9727500e+00 1.9703200e+00 1.3382200e-01 2.2685400e+00 1.9013100e+00 8.6010000e-03 1.5596200e+00 1.7405800e+00 1.1231000e-02 1.8602900e+00 1.9892200e+00 5.4124000e-02 1.4541000e+00 1.9778500e+00 8.1499000e-02 1.6305100e+00 1.6974100e+00 1.1078200e-01 1.8411600e+00 1.6083500e+00 7.3821000e-02 1.4226600e+00 1.6188900e+00 9.8330000e-03 2.0998100e+00 1.7013900e+00 8.0598000e-02 1.5393000e+00 1.6235700e+00 3.3627000e-02 1.9330400e+00 1.6987400e+00 5.0418000e-02 1.7173200e+00 1.8000000e+00 1.8579700e-01 1.9116300e+00 1.8404900e+00 1.2160000e-02 1.5464100e+00 1.5266600e+00 4.8308000e-02 1.8419100e+00 1.5639900e+00 1.1521800e-01 1.8819500e+00 2.3060400e+00 1.3114000e-02 1.7655800e+00 2.1357400e+00 3.3608000e-02 1.6329800e+00 1.9785800e+00 9.7230000e-03 1.7292300e+00 1.6181500e+00 6.6359000e-02 1.7254700e+00 1.8084900e+00 1.4186900e-01 1.8810700e+00 1.6125000e+00 4.3920000e-02 2.1680100e+00 2.0847700e+00 9.8600000e-03 1.7744200e+00 2.0895100e+00 3.0836000e-02 1.6584800e+00 1.6185700e+00 1.2269000e-02 1.5845900e+00 1.3671500e+00 1.2002000e-02 1.9155700e+00 1.8726300e+00 1.4636500e-01 1.6652400e+00 1.4187700e+00 1.4002000e-02 1.8719100e+00 2.2581500e+00 9.6310000e-03 1.5438200e+00 1.9221700e+00 8.0194000e-02 1.7152500e+00 2.2242000e+00 2.8686000e-02 1.9674200e+00 2.2010300e+00 2.0121000e-02 1.8877400e+00 1.3255800e+00 1.5958000e-02 2.1347500e+00 1.7935500e+00 6.0168000e-02 1.6772800e+00 1.5913400e+00 1.2813500e-01 1.5648000e+00 1.6774200e+00 2.6500000e-02 1.9512000e+00 1.9940900e+00 1.0656500e-01 1.8409000e+00 2.1105500e+00 5.9360000e-02 1.6841300e+00 1.8310300e+00 7.5741000e-02 1.6126200e+00 1.7033400e+00 1.0428800e-01 1.8694200e+00 1.7558400e+00 2.1362200e-01 2.0788600e+00 1.8218700e+00 2.5683000e-02 1.8844900e+00 1.7382500e+00 1.9627000e-01 1.8288200e+00 1.6373500e+00 7.7853000e-02 1.6017200e+00 1.8957700e+00 1.0948300e-01 1.7732200e+00 1.9692000e+00 8.1020000e-03 1.8000600e+00 1.6827000e+00 8.9363000e-02 1.9328100e+00 1.6798300e+00 3.7529000e-02 2.1218100e+00 1.8810700e+00 8.3604000e-02 1.5310300e+00 1.3434300e+00 1.1790000e-02 1.4276400e+00 1.9925800e+00 2.6970000e-02 2.0525200e+00 1.7100800e+00 1.2924000e-02 1.6262400e+00 1.1901400e+00 9.6280000e-03 1.9304200e+00 1.7130400e+00 8.6230000e-03 1.7426900e+00 1.7922700e+00 9.5922000e-02 1.8122500e+00 1.9761700e+00 1.5318700e-01 2.0849900e+00 1.9549400e+00 9.6703000e-02 1.9138000e+00 2.2818400e+00 8.8040000e-03 1.8087500e+00 1.8936700e+00 1.6618100e-01 1.8199400e+00 1.6048800e+00 1.4045200e-01 1.8385800e+00 1.6408500e+00 1.2213800e-01 1.8514500e+00 2.2396600e+00 1.1603000e-02 1.5607400e+00 2.1311300e+00 1.0544000e-02 1.9255700e+00 1.6272700e+00 1.3471900e-01 1.9127200e+00 1.7729400e+00 1.2968500e-01 1.9183900e+00 1.8252400e+00 8.7473000e-02 1.8360000e+00 1.7981500e+00 7.6098000e-02 1.9018600e+00 1.9904800e+00 8.8070000e-03 1.7182500e+00 1.7036700e+00 5.9717000e-02 2.1327500e+00 1.6036400e+00 2.1506000e-02 1.5449500e+00 1.7465900e+00 1.1504600e-01 1.9950100e+00 2.0580200e+00 4.9223000e-02 1.7586600e+00 2.0244300e+00 4.6031000e-02 1.7590600e+00 1.4548200e+00 7.1043000e-02 1.7312200e+00 1.8466500e+00 2.1465600e-01 1.7171200e+00 1.7432100e+00 1.0274400e-01 1.9351300e+00 1.9748100e+00 1.1441300e-01 1.9346200e+00 2.1629600e+00 4.8224000e-02 2.0134400e+00 1.8552900e+00 1.3752800e-01 1.7750400e+00 2.3014100e+00 1.5897000e-02 1.7176900e+00 1.5812800e+00 1.4296300e-01 1.8749900e+00 1.8827900e+00 2.1938700e-01 1.4297700e+00 1.7160800e+00 3.4014000e-02 1.7151700e+00 1.7748300e+00 2.3495300e-01 2.0251900e+00 1.5966400e+00 9.7020000e-03 2.0602500e+00 1.5338800e+00 1.2009000e-02 1.4089300e+00 1.6068000e+00 1.3095000e-02 1.8304300e+00 1.9884800e+00 1.6011300e-01 1.4118600e+00 2.0335500e+00 9.7920000e-03 1.9243500e+00 1.7934900e+00 1.7005700e-01 1.8655400e+00 1.78
[...]
<PointData>
<DataArray Name="Points" NumberOfComponents="3" format="ascii" type="Float32">
1.6940000e+00 1.6677800e+00 1.5795300e-01 1.6342200e+00 1.7277900e+00 1.5422600e-01 2.0941100e+00 1.8021900e+00 7.4936000e-02 1.5474200e+00 1.9067300e+00 1.2115300e-01 2.0219800e+00 2.1595400e+00 3.4545000e-02 1.8614100e+00 1.7161300e+00 7.7332000e-02 2.0410900e+00 1.7933400e+00 9.3334000e-02 1.9683100e+00 1.6150900e+00 2.4887000e-02 1.8530300e+00 1.6281800e+00 2.4307000e-02 1.5066800e+00 1.9022500e+00 4.2366000e-02 1.3774500e+00 2.1235100e+00 1.1311000e-02 1.7729700e+00 1.8548700e+00 8.6690000e-03 1.6177800e+00 1.9319800e+00 3.3703000e-02 1.8121600e+00 1.6771200e+00 5.3014000e-02 1.4875300e+00 1.7956600e+00 5.4484000e-02 1.7253800e+00 1.9732100e+00 6.2659000e-02 1.5860800e+00 1.9989700e+00 4.0895000e-02 1.8212300e+00 2.2148700e+00 1.2502000e-02 2.0088800e+00 1.9003200e+00 1.5433600e-01 1.9150600e+00 1.7273400e+00 1.2713000e-02 1.7537700e+00 1.8761200e+00 4.1974000e-02 1.7683800e+00 1.9617000e+00 1.4620100e-01 1.5198700e+00 1.7021800e+00 1.0729500e-01 1.6007100e+00 2.3501500e+00 9.1990000e-03 1.8219100e+00 1.9199600e+00 8.3060000e-03 1.6841600e+00 1.9565800e+00 1.2433000e-02 1.8865300e+00 1.5396200e+00 3.2950000e-02 1.4455800e+00 1.7318000e+00 1.5523000e-02 2.0797100e+00 1.8394100e+00 1.1673700e-01 1.8461900e+00 1.7141400e+00 2.1276100e-01 1.8706100e+00 2.0643100e+00 9.0950000e-03 1.6873300e+00 1.5503700e+00 5.1507000e-02 2.1602800e+00 1.8181700e+00 6.6093000e-02 1.5477500e+00 1.9754000e+00 8.4645000e-02 1.5679200e+00 1.8315300e+00 1.2828000e-02 1.9326600e+00 1.9679700e+00 1.4709000e-02 1.8061300e+00 1.4446700e+00 3.1878000e-02 1.9062600e+00 1.9955700e+00 4.7608000e-02 1.8181300e+00 1.8770800e+00 1.5127300e-01 1.6308800e+00 1.6040600e+00 1.3272700e-01 2.1117100e+00 2.0053800e+00 6.7839000e-02 1.7677900e+00 1.6213200e+00 8.9260000e-03 1.9466500e+00 1.5684600e+00 7.8592000e-02 1.8768400e+00 1.8343900e+00 1.1193800e-01 1.7651300e+00 1.5414600e+00 8.8090000e-03 1.8093300e+00 1.6623300e+00 4.6869000e-02 1.6402000e+00 1.6934300e+00 1.2029000e-02 1.2764800e+00 1.9289200e+00 9.8980000e-03 1.6222400e+00 1.7127500e+00 9.3350000e-03 1.6716700e+00 1.8951600e+00 8.3347000e-02 1.9618400e+00 1.9094800e+00 2.8349000e-02 1.7909300e+00 1.5302600e+00 2.7467000e-02 1.8779900e+00 1.8112500e+00 9.8450000e-03 1.7913000e+00 1.8183200e+00 2.1115800e-01 1.8839900e+00 1.8315900e+00 1.3600600e-01 1.5544500e+00 2.0239400e+00 9.3973000e-02 2.2042700e+00 1.9016400e+00 1.1924000e-02 1.5719200e+00 1.8436400e+00 1.4873100e-01 1.9509300e+00 2.0766300e+00 7.4028000e-02 2.1031000e+00 1.5579800e+00 3.5695000e-02 2.0288200e+00 1.8027500e+00 1.8290000e-02 1.7247400e+00 1.7902700e+00 1.2523400e-01 1.6890300e+00 1.5775400e+00 1.5966500e-01 1.5692000e+00 1.9870800e+00 5.5587000e-02 1.9691500e+00 2.0248900e+00 8.1820000e-03 1.8800200e+00 1.9849100e+00 1.2682900e-01 1.8577700e+00 1.9319300e+00 9.3360000e-03 2.0690700e+00 1.7645400e+00 6.8273000e-02 1.6955500e+00 1.4677600e+00 8.6235000e-02 1.5883400e+00 1.6532600e+00 1.1970400e-01 1.9977200e+00 1.7844500e+00 4.9085000e-02 1.7125700e+00 1.7433600e+00 3.0311000e-02 1.9391600e+00 1.9326400e+00 1.3747800e-01 2.2291700e+00 1.7261800e+00 4.0495000e-02 1.7184600e+00 1.8437200e+00 1.9555900e-01 1.7680300e+00 1.8032800e+00 3.0923000e-02 1.9246800e+00 1.8630400e+00 3.5545000e-02 2.0643500e+00 1.7567500e+00 4.8041000e-02 1.5255400e+00 1.5680200e+00 8.8004000e-02 1.6951400e+00 1.9896900e+00 3.4290000e-02 1.8270600e+00 1.8976600e+00 8.9519000e-02 2.0102700e+00 1.6038900e+00 5.3755000e-02 1.9408300e+00 1.3370500e+00 8.9710000e-03 1.8010600e+00 1.5880900e+00 1.4089500e-01 1.7584000e+00 1.6952500e+00 1.3625000e-02 1.8109900e+00 2.1198800e+00 2.8087000e-02 1.8999300e+00 1.8224700e+00 1.8035800e-01 2.1483600e+00 1.9086800e+00 5.1065000e-02 1.8357000e+00 1.6933300e+00 2.2686400e-01 1.6392500e+00 1.6234800e+00 7.1739000e-02 1.9650000e+00 1.8200400e+00 6.7869000e-02 2.0591400e+00 1.8644100e+00 9.3837000e-02 1.8439000e+00 2.0816400e+00 4.7247000e-02 1.6743200e+00 1.7760400e+00 1.4427700e-01 2.0662100e+00 1.8284800e+00 1.0837000e-02 1.6681900e+00 2.1202200e+00 3.8636000e-02 1.7912900e+00 1.8324500e+00 5.0862000e-02 1.6851100e+00 1.6953700e+00 1.1068000e-02 1.7539600e+00 1.9924900e+00 1.2746000e-02 1.6344600e+00 1.5570000e+00 6.1787000e-02 1.7549700e+00 2.0451300e+00 1.2016600e-01 1.5190200e+00 1.8889000e+00 3.1495000e-02 1.7791600e+00 1.8394100e+00 7.5247000e-02 1.7686300e+00 1.4070200e+00 8.8420000e-03 1.8800200e+00 1.8224100e+00 5.5367000e-02 2.0564200e+00 1.8335300e+00 3.1051000e-02 1.7423500e+00 1.9070700e+00 9.9079000e-02 1.9214200e+00 1.8894100e+00 1.2576000e-02 1.9357900e+00 1.7107200e+00 3.0006000e-02 2.0626800e+00 1.7758900e+00 1.1050000e-02 2.2235500e+00 1.9096000e+00 2.5544000e-02 1.3717400e+00 1.9336600e+00 9.9790000e-03 2.0707900e+00 1.7726200e+00 4.0905000e-02 1.8149700e+00 2.0671700e+00 1.0465600e-01 1.8583000e+00 1.8389400e+00 1.3196700e-01 2.1342500e+00 1.9042100e+00 1.5138000e-02 1.8314600e+00 1.5860500e+00 8.1938000e-02 1.6151400e+00 1.7426100e+00 1.3817600e-01 2.0891800e+00 1.7035400e+00 5.0800000e-02 1.9967600e+00 1.7802500e+00 2.5134000e-02 1.9183500e+00 2.2176100e+00 3.0465000e-02 1.9112700e+00 2.1654400e+00 3.1921000e-02 1.7692700e+00 1.8497800e+00 9.7471000e-02 1.7246300e+00 1.3450000e+00 9.7030000e-03 1.7324200e+00 1.7306000e+00 1.1995700e-01 1.4686900e+00 1.9590300e+00 2.7799000e-02 1.9918100e+00 2.2983400e+00 1.5378000e-02 1.9026300e+00 1.9654700e+00 1.5422000e-02 1.8178900e+00 1.6762300e+00 7.2574000e-02 1.8760200e+00 2.0524300e+00 1.2701700e-01 1.8231400e+00 1.6559200e+00 8.4506000e-02 1.5779300e+00 1.8491200e+00 3.0737000e-02 2.2362700e+00 1.9874500e+00 1.2656000e-02 2.1318000e+00 2.0256300e+00 8.1810000e-03 1.6252600e+00 1.6596400e+00 5.8944000e-02 1.7863700e+00 1.7863500e+00 2.0142400e-01 1.6126800e+00 1.8787800e+00 1.0691000e-02 1.8458200e+00 1.9147800e+00 8.6828000e-02 1.6042200e+00 1.5326000e+00 7.4634000e-02 2.1379900e+00 1.8195300e+00 1.3130000e-02 2.2646100e+00 1.7758500e+00 1.0214000e-02 2.1727100e+00 1.8696500e+00 8.9990000e-03 1.4357800e+00 1.9089200e+00 1.0134000e-02 1.9727500e+00 1.9703200e+00 1.3382200e-01 2.2685400e+00 1.9013100e+00 8.6010000e-03 1.5596200e+00 1.7405800e+00 1.1231000e-02 1.8602900e+00 1.9892200e+00 5.4124000e-02 1.4541000e+00 1.9778500e+00 8.1499000e-02 1.6305100e+00 1.6974100e+00 1.1078200e-01 1.8411600e+00 1.6083500e+00 7.3821000e-02 1.4226600e+00 1.6188900e+00 9.8330000e-03 2.0998100e+00 1.7013900e+00 8.0598000e-02 1.5393000e+00 1.6235700e+00 3.3627000e-02 1.9330400e+00 1.6987400e+00 5.0418000e-02 1.7173200e+00 1.8000000e+00 1.8579700e-01 1.9116300e+00 1.8404900e+00 1.2160000e-02 1.5464100e+00 1.5266600e+00 4.8308000e-02 1.8419100e+00 1.5639900e+00 1.1521800e-01 1.8819500e+00 2.3060400e+00 1.3114000e-02 1.7655800e+00 2.1357400e+00 3.3608000e-02 1.6329800e+00 1.9785800e+00 9.7230000e-03 1.7292300e+00 1.6181500e+00 6.6359000e-02 1.7254700e+00 1.8084900e+00 1.4186900e-01 1.8810700e+00 1.6125000e+00 4.3920000e-02 2.1680100e+00 2.0847700e+00 9.8600000e-03 1.7744200e+00 2.0895100e+00 3.0836000e-02 1.6584800e+00 1.6185700e+00 1.2269000e-02 1.5845900e+00 1.3671500e+00 1.2002000e-02 1.9155700e+00 1.8726300e+00 1.4636500e-01 1.6652400e+00 1.4187700e+00 1.4002000e-02 1.8719100e+00 2.2581500e+00 9.6310000e-03 1.5438200e+00 1.9221700e+00 8.0194000e-02 1.7152500e+00 2.2242000e+00 2.8686000e-02 1.9674200e+00 2.2010300e+00 2.0121000e-02 1.8877400e+00 1.3255800e+00 1.5958000e-02 2.1347500e+00 1.7935500e+00 6.0168000e-02 1.6772800e+00 1.5913400e+00 1.2813500e-01 1.5648000e+00 1.6774200e+00 2.6500000e-02 1.9512000e+00 1.9940900e+00 1.0656500e-01 1.8409000e+00 2.1105500e+00 5.9360000e-02 1.6841300e+00 1.8310300e+00 7.5741000e-02 1.6126200e+00 1.7033400e+00 1.0428800e-01 1.8694200e+00 1.7558400e+00 2.1362200e-01 2.0788600e+00 1.8218700e+00 2.5683000e-02 1.8844900e+00 1.7382500e+00 1.9627000e-01 1.8288200e+00 1.6373500e+00 7.7853000e-02 1.6017200e+00 1.8957700e+00 1.0948300e-01 1.7732200e+00 1.9692000e+00 8.1020000e-03 1.8000600e+00 1.6827000e+00 8.9363000e-02 1.9328100e+00 1.6798300e+00 3.7529000e-02 2.1218100e+00 1.8810700e+00 8.3604000e-02 1.5310300e+00 1.3434300e+00 1.1790000e-02 1.4276400e+00 1.9925800e+00 2.6970000e-02 2.0525200e+00 1.7100800e+00 1.2924000e-02 1.6262400e+00 1.1901400e+00 9.6280000e-03 1.9304200e+00 1.7130400e+00 8.6230000e-03 1.7426900e+00 1.7922700e+00 9.5922000e-02 1.8122500e+00 1.9761700e+00 1.5318700e-01 2.0849900e+00 1.9549400e+00 9.6703000e-02 1.9138000e+00 2.2818400e+00 8.8040000e-03 1.8087500e+00 1.8936700e+00 1.6618100e-01 1.8199400e+00 1.6048800e+00 1.4045200e-01 1.8385800e+00 1.6408500e+00 1.2213800e-01 1.8514500e+00 2.2396600e+00 1.1603000e-02 1.5607400e+00 2.1311300e+00 1.0544000e-02 1.9255700e+00 1.6272700e+00 1.3471900e-01 1.9127200e+00 1.7729400e+00 1.2968500e-01 1.9183900e+00 1.8252400e+00 8.7473000e-02 1.8360000e+00 1.7981500e+00 7.6098000e-02 1.9018600e+00 1.9904800e+00 8.8070000e-03 1.7182500e+00 1.7036700e+00 5.9717000e-02 2.1327500e+00 1.6036400e+00 2.1506000e-02 1.5449500e+00 1.7465900e+00 1.1504600e-01 1.9950100e+00 2.0580200e+00 4.9223000e-02 1.7586600e+00 2.0244300e+00 4.6031000e-02 1.7590600e+00 1.4548200e+00 7.1043000e-02 1.7312200e+00 1.8466500e+00 2.1465600e-01 1.7171200e+00 1.7432100e+00 1.0274400e-01 1.9351300e+00 1.9748100e+00 1.1441300e-01 1.9346200e+00 2.1629600e+00 4.8224000e-02 2.0134400e+00 1.8552900e+00 1.3752800e-01 1.7750400e+00 2.3014100e+00 1.5897000e-02 1.7176900e+00 1.5812800e+00 1.4296300e-01 1.8749900e+00 1.8827900e+00 2.1938700e-01 1.4297700e+00 1.7160800e+00 3.4014000e-02 1.7151700e+00 1.7748300e+00 2.3495300e-01 2.0251900e+00 1.5966400e+00 9.7020000e-03 2.0602500e+00 1.5338800e+00 1.2009000e-02 1.4089300e+00 1.6068000e+00 1.3095000e-02 1.8304300e+00 1.9884800e+00 1.6011300e-01 1.4118600e+00 2.0335500e+00 9.7920000e-03 1.9243500e+00 1.7934900e+00 1.7005700e-01 1.8655400e+00 1.7838000e+00 1.2358200e-01 1.7233500e+00 1.7777600e+00 1.4480500e-01 1.9188000e+00 1.7210700e+00 1.4317400e-01 1.5193700e+00 2.2033800e+00 1.1356000e-02 1.9375500e+00 1.4979200e+00 4.5760000e-02 2.0957600e+00 1.7594200e+00 2.7912000e-02 1.7627500e+00 1.8870900e+00 8.8550000e-03 1.6888100e+00 1.8758500e+00 1.4783200e-01 1.4160200e+00 1.8974200e+00 8.5110000e-03 1.8849300e+00 2.1148500e+00 5.5502000e-02 1.8802500e+00 2.0387000e+00 6.0582000e-02 1.8897500e+00 1.7902700e+00 1.3174700e-01 2.1479600e+00 2.2090100e+00 1.2870000e-02 1.4874800e+00 1.7764600e+00 7.0100000e-02 1.6363200e+00 1.7967400e+00 8.5794000e-02 2.0441800e+00 1.8195900e+00 9.6056000e-02 1.9589000e+00 1.3056800e+00 9.8630000e-03 1.7352900e+00 1.6328100e+00 8.7826000e-02 1.5657300e+00 1.8955100e+00 8.7739000e-02 1.9319400e+00 1.9876800e+00 1.5342000e-01 2.1531200e+00 2.1485700e+00 1.0123000e-02 1.7436900e+00 1.5580000e+00 8.7743000e-02 2.4353800e+00 1.9664400e+00 1.5940000e-02 1.7994100e+00 2.1237100e+00 5.4685000e-02 2.1503600e+00 1.9856600e+00 2.2543000e-02 1.7210100e+00 1.5037500e+00 4.8042000e-02 2.1250800e+00 2.0230200e+00 2.7458000e-02 2.0169200e+00 1.9522800e+00 1.1301400e-01 1.9694900e+00 1.8868400e+00 1.0537200e-01 1.9971600e+00 1.7225800e+00 2.4324000e-02 1.7396100e+00 2.0586800e+00 1.4640000e-02 1.6235000e+00 2.2472700e+00 9.6280000e-03 1.8911300e+00 1.8670100e+00 6.7457000e-02 2.0253900e+00 2.0891500e+00 1.4446000e-02 1.7240300e+00 1.4265100e+00 1.3178000e-02 1.8985000e+00 1.7995900e+00 9.7667000e-02 2.0498600e+00 1.8138500e+00 8.8010000e-03 1.6467300e+00 1.8574900e+00 1.8141000e-02 1.5363300e+00 1.7748700e+00 9.5222000e-02 1.8262500e+00 1.6203600e+00 3.2465000e-02 1.5294500e+00 2.2606400e+00 9.9790000e-03 1.8688700e+00 2.0974700e+00 1.1826500e-01 1.9300900e+00 1.5140500e+00 3.8236000e-02 1.7663900e+00 1.9805600e+00 1.6077100e-01 1.6678100e+00 1.8640300e+00 2.7309000e-02 2.2068100e+00 1.5401300e+00 1.5304000e-02 2.0034800e+00 1.7761800e+00 1.1577500e-01 2.2534200e+00 2.0426200e+00 1.5682000e-02 1.6449600e+00 1.9487900e+00 7.9060000e-02 1.6493800e+00 1.7930800e+00 9.0890000e-03 2.0280200e+00 1.2801000e+00 1.0061000e-02 1.9899800e+00 1.8121200e+00 6.7518000e-02 1.4576100e+00 1.8935500e+00 3.3101000e-02 2.0964100e+00 1.7945500e+00 1.0678600e-01 1.7273800e+00 1.5608000e+00 1.3454300e-01 1.6539500e+00 1.7507100e+00 1.7096200e-01 1.7692100e+00 2.1182600e+00 8.9541000e-02 1.9030600e+00 1.6158500e+00 1.3347700e-01 2.0477100e+00 1.7471700e+00 3.9166000e-02 1.7345500e+00 1.8002600e+00 3.1674000e-02 1.8755700e+00 1.6947400e+00 1.4943500e-01 1.7929800e+00 1.8257000e+00 1.0285000e-02 2.0931500e+00 1.8234000e+00 6.0165000e-02 2.1569300e+00 1.8292100e+00 2.7459000e-02 1.6443100e+00 1.9031000e+00 1.4386300e-01 1.9882000e+00 1.8646200e+00 1.0051000e-02 1.6908400e+00 1.8409700e+00 4.8559000e-02 1.7180500e+00 1.9104000e+00 7.5429000e-02 1.9544200e+00 1.5783300e+00 3.7144000e-02 1.6224800e+00 1.8934500e+00 7.5009000e-02 2.0017100e+00 1.9649100e+00 1.2198000e-02 1.7189300e+00 1.8262000e+00 2.3237100e-01 1.9943200e+00 1.9677300e+00 3.6527000e-02 1.5453300e+00 1.5048200e+00 3.4392000e-02 2.1275900e+00 1.7055900e+00 3.5496000e-02 1.8813100e+00 1.6911600e+00 4.1475000e-02 1.7287900e+00 1.9322200e+00 1.3366900e-01 2.1545600e+00 1.8616900e+00 7.4555000e-02 2.0152300e+00 1.8473400e+00 1.1736000e-02 1.9426000e+00 1.9214600e+00 9.3388000e-02 2.0951300e+00 2.0246400e+00 3.1146000e-02 1.6648100e+00 2.0058900e+00 2.7627000e-02 2.1272700e+00 1.8412100e+00 9.4820000e-03 1.6564300e+00 1.5705000e+00 6.1441000e-02 2.0676600e+00 1.7352700e+00 3.9060000e-02 2.1263900e+00 1.9811800e+00 1.0039000e-02 1.6392000e+00 2.0374700e+00 4.5112000e-02 1.8368600e+00 1.5062500e+00 6.4281000e-02 1.7481900e+00 1.5200700e+00 7.1985000e-02 1.3380500e+00 1.8855900e+00 3.3240000e-02 1.5322900e+00 1.9933600e+00 4.1359000e-02 1.7121100e+00 2.0251600e+00 9.4991000e-02 2.1012400e+00 1.5883000e+00 6.9166000e-02 1.9611700e+00 1.7142600e+00 1.1002700e-01 2.0224300e+00 1.9468400e+00 1.5474000e-02 1.6653900e+00 1.8851600e+00 3.7455000e-02 1.5330900e+00 1.8178500e+00 1.2382300e-01 1.9324600e+00 1.7381500e+00 1.3248500e-01 1.7882200e+00 1.8579400e+00 1.7108100e-01 1.7984000e+00 1.3251100e+00 1.4299000e-02 1.5246200e+00 2.0513300e+00 1.5047000e-02 1.7917600e+00 2.2021900e+00 1.1813000e-02 1.6921400e+00 1.5828000e+00 9.6521000e-02 2.0687000e+00 1.8984000e+00 4.5232000e-02 1.6869000e+00 1.7564100e+00 1.3071000e-01 2.0005300e+00 1.8573700e+00 2.3736000e-02 1.7407900e+00 1.6098400e+00 9.9203000e-02 1.5328200e+00 1.5464300e+00 5.9818000e-02 1.5954400e+00 1.6083100e+00 2.8512000e-02 1.8543800e+00 1.6385000e+00 1.5913400e-01 1.7378200e+00 1.9001400e+00 1.2183800e-01 1.8674800e+00 2.3255800e+00 8.9190000e-03 1.4975300e+00 2.0460700e+00 1.0096000e-02 1.9777400e+00 1.7261200e+00 4.4274000e-02 2.0290900e+00 2.0389400e+00 8.2999000e-02 1.9186100e+00 1.7352900e+00 1.9670300e-01 2.0256400e+00 1.5024700e+00 5.6745000e-02 1.6457800e+00 1.4071900e+00 2.6963000e-02 1.8916600e+00 1.7556600e+00 1.5759000e-02 1.5392000e+00 1.7156700e+00 1.0839000e-02 1.6562600e+00 1.6642000e+00 1.2364900e-01 1.7000200e+00 1.6994100e+00 1.5126900e-01 1.6174000e+00 2.0277400e+00 9.1949000e-02 2.1500500e+00 1.7660100e+00 6.3671000e-02 1.9577900e+00 1.6995300e+00 1.7657100e-01 1.4104500e+00 1.7291400e+00 2.5784000e-02 1.7149200e+00 1.8870800e+00 2.9394000e-02 1.8564400e+00 1.5761300e+00 1.5110000e-02 1.7861800e+00 1.6979500e+00 8.8030000e-03 1.7130800e+00 1.8152900e+00 1.2085100e-01 1.6663100e+00 1.7989900e+00 1.3335100e-01 1.5960500e+00 1.7252000e+00 3.5898000e-02 1.8237900e+00 1.9231700e+00 1.1977300e-01 2.1589600e+00 1.7242500e+00 8.2710000e-03 1.6918400e+00 1.5978900e+00 1.1499800e-01 1.9768900e+00 2.1704600e+00 1.4493000e-02 2.0100300e+00 1.7771700e+00 8.5180000e-02 1.7270000e+00 1.8913400e+00 1.5916400e-01 1.7119400e+00 1.5901700e+00 5.7217000e-02 1.7964900e+00 2.1444800e+00 3.7515000e-02 1.9506400e+00 2.0305400e+00 4.8355000e-02 1.8462000e+00 1.8513000e+00 1.9345900e-01 2.1209800e+00 1.6398200e+00 1.3996000e-02 1.9477800e+00 1.7627500e+00 1.1879000e-01 1.6766200e+00 1.6174300e+00 1.1271600e-01 1.6563600e+00 1.8380700e+00 9.2700000e-03 2.1562400e+00 1.9027500e+00 2.7398000e-02 1.9013500e+00 1.8099300e+00 7.3299000e-02 1.9041900e+00 1.6144200e+00 5.1819000e-02 1.9760900e+00 1.4992300e+00 4.4629000e-02 1.8074600e+00 1.7729400e+00 1.3899400e-01 1.5323700e+00 1.9061200e+00 2.7634000e-02 1.7442300e+00 1.9535700e+00 1.9300100e-01 2.2585900e+00 1.6346500e+00 3.4585000e-02 2.1844300e+00 1.6863000e+00 3.1194000e-02 1.9767900e+00 1.9602200e+00 8.5906000e-02 1.7123900e+00 1.6390300e+00 6.7817000e-02 2.1702400e+00 1.8091500e+00 2.8608000e-02 1.4878600e+00 2.0071700e+00 9.9260000e-03 1.6863700e+00 1.7268600e+00 7.9435000e-02 1.7947200e+00 2.0365000e+00 4.1683000e-02 1.7507300e+00 1.9687500e+00 1.7412800e-01 1.7056100e+00 1.9829500e+00 8.0934000e-02 1.7388500e+00 1.8113700e+00 6.5603000e-02 1.7963800e+00 1.6637500e+00 1.6277300e-01 1.7636600e+00 1.9859900e+00 1.1431000e-01 1.8444500e+00 1.8536100e+00 1.2814000e-02 1.6637900e+00 1.6674200e+00 9.8938000e-02 2.1306800e+00 1.5225800e+00 9.6360000e-03 1.6962400e+00 1.8141900e+00 5.1851000e-02 2.2424400e+00 1.8710100e+00 1.1871000e-02 1.8998100e+00 1.8040800e+00 2.1244600e-01 1.9013600e+00 1.6643000e+00 1.0603000e-02 1.6910200e+00 1.7196900e+00 4.3924000e-02 1.8728800e+00 1.7198300e+00 2.1385500e-01 2.0626000e+00 1.7052500e+00 3.8946000e-02 1.6823500e+00 1.4841100e+00 1.0478000e-02 1.4324700e+00 1.5559000e+00 1.1043000e-02 1.5942500e+00 2.1572500e+00 4.4198000e-02 1.8166400e+00 1.8130800e+00 1.1627700e-01 1.7693400e+00 1.4366000e+00 1.0466000e-02 1.8379700e+00 1.5136500e+00 3.3343000e-02 1.6334300e+00 1.7566100e+00 4.5418000e-02 1.7439400e+00 2.0389900e+00 1.5532300e-01 1.9118300e+00 1.7546400e+00 1.8115100e-01 1.6360500e+00 1.4906400e+00 4.8455000e-02 1.8300400e+00 1.8878000e+00 1.6389300e-01 1.6801500e+00 1.6040600e+00 1.3830000e-02 1.9065800e+00 1.7584000e+00 6.4444000e-02 1.7283600e+00 1.5581800e+00 1.1375400e-01 1.8238800e+00 1.6937800e+00 8.8347000e-02 1.7010300e+00 1.4227100e+00 3.0073000e-02 1.9708800e+00 1.8247500e+00 2.6487000e-02 1.8002500e+00 1.5738600e+00 1.0593400e-01 1.5477700e+00 1.8451300e+00 2.8440000e-02 1.8959200e+00 2.0915000e+00 4.0270000e-02 1.9396300e+00 1.7127000e+00 1.7864100e-01 2.0032300e+00 1.3689800e+00 1.2841000e-02 1.3552600e+00 2.0408100e+00 1.3444000e-02 1.5981700e+00 1.9390300e+00 1.5950800e-01 2.2962000e+00 1.8295100e+00 1.5498000e-02 1.4967600e+00 1.8472100e+00 6.8578000e-02 2.0314100e+00 1.7751100e+00 1.1398800e-01 1.3561000e+00 1.8987400e+00 1.4514000e-02 1.9839700e+00 1.7995800e+00 1.6991900e-01 1.6427500e+00 1.7979600e+00 2.0378400e-01 1.2913300e+00 1.6058200e+00 9.7430000e-03 1.7832500e+00 1.4931300e+00 1.0930200e-01 1.8241300e+00 1.4347600e+00 2.5705000e-02 1.6906800e+00 1.7231300e+00 1.3091000e-02 1.8106900e+00 1.9141900e+00 1.0119000e-01 2.0417900e+00 1.8949700e+00 9.9556000e-02 2.1941200e+00 2.0385500e+00 9.2200000e-03 1.9812600e+00 1.8555900e+00 7.9934000e-02 1.9844700e+00 2.0506500e+00 8.6098000e-02 1.6389600e+00 1.6042600e+00 1.1887000e-02 1.6788500e+00 1.9328000e+00 3.5841000e-02 1.7320400e+00 1.6889000e+00 1.6960400e-01 1.7230100e+00 1.8437300e+00 9.7106000e-02 1.8964400e+00 2.0507800e+00 7.5197000e-02 2.1398300e+00 2.1190000e+00 2.7357000e-02 1.8486900e+00 1.8545000e+00 8.2526000e-02 1.6589400e+00 1.7623600e+00 1.2519400e-01 2.0476300e+00 1.8643600e+00 1.3255000e-02 1.9165400e+00 2.1927000e+00 4.1586000e-02 1.9359400e+00 1.7674300e+00 6.0854000e-02 1.7993600e+00 1.7998100e+00 7.9887000e-02 2.0881800e+00 2.1892300e+00 2.5278000e-02 1.7382900e+00 1.5277200e+00 2.1313000e-02 1.6285600e+00 1.6295100e+00 9.8205000e-02 1.9219300e+00 1.8498100e+00 9.6602000e-02 1.8002300e+00 1.8474200e+00 1.5965300e-01 1.9414400e+00 2.0002000e+00 2.9035000e-02 2.0087800e+00 1.7264200e+00 1.1977600e-01 1.4327300e+00 1.6987800e+00 1.3548000e-02 2.0800400e+00 1.7949200e+00 9.5416000e-02 1.7676900e+00 1.5594700e+00 1.4444500e-01 1.7985300e+00 1.6227300e+00 1.1416800e-01 1.8532400e+00 2.1764200e+00 4.3922000e-02 1.5790900e+00 2.1515300e+00 9.1350000e-03 1.8388000e+00 2.1203900e+00 3.4921000e-02 1.6217300e+00 1.7712400e+00 3.3564000e-02 1